
The following have been reloaded with a version change:
  1) intel/cluster.2018.3 => intel/17.0.4-74uvhji


Inactive Modules:
  1) intel-mkl     2) intel-mpi

The following have been reloaded with a version change:
  1) intel/17.0.4-74uvhji => intel/cluster.2018.3

bdw-0031.21046 PSM2_IDENTIFY PSM2 v2.1
bdw-0031.21046 PSM2_IDENTIFY location /lib64/libpsm2.so.2
bdw-0031.21046 PSM2_IDENTIFY build date 2017-10-25 22:45:16+00:00
bdw-0031.21046 PSM2_IDENTIFY src checksum 4a3b39b93920ff4b7cb95ec90a1ff6d6df07d111
bdw-0031.21046 PSM2_IDENTIFY git checksum 61c8d25f4d7248c12cbdab63671a5bd237e81321
bdw-0031.21046 PSM2_IDENTIFY built against driver interface v6.3
bdw-0031.21046 PSM2_IDENTIFY run-time driver interface v6.3

     Program PWSCF v.6.4 starts on 18Apr2019 at 21:54:32 

     This program is part of the open-source Quantum ESPRESSO suite
     for quantum simulation of materials; please cite
         "P. Giannozzi et al., J. Phys.:Condens. Matter 21 395502 (2009);
         "P. Giannozzi et al., J. Phys.:Condens. Matter 29 465901 (2017);
          URL http://www.quantum-espresso.org", 
     in publications or presentations arising from this work. More details at
     http://www.quantum-espresso.org/quote

     Parallel version (MPI), running on     1 processors

     MPI processes distributed on     1 nodes
     Reading input from ./LaTe3-relax.in

     Current dimensions of program PWSCF are:
     Max number of different atomic species (ntypx) = 10
     Max number of k-points (npk) =  40000
     Max angular momentum in pseudopotentials (lmaxx) =  3
     Message from routine read_upf::
     Pseudo file La.pbe-spdfn-rrkjus_psl.1.0.0.UPF has been fixed on the fly.
To avoid this message in the future, permanently fix 
 your pseudo files following these instructions: 
https://gitlab.com/QEF/q-e/blob/master/upftools/how_to_fix_upf.md
     Message from routine read_upf::
     Pseudo file Te.pbe-dn-rrkjus_psl.1.0.0.UPF has been fixed on the fly.
To avoid this message in the future, permanently fix 
 your pseudo files following these instructions: 
https://gitlab.com/QEF/q-e/blob/master/upftools/how_to_fix_upf.md
               file La.pbe-spdfn-rrkjus_psl.1.0.0.UPF: wavefunction(s)  5S 4F renormalized

     Subspace diagonalization in iterative solution of the eigenvalue problem:
     a serial algorithm will be used

 
     G-vector sticks info
     --------------------
     sticks:   dense  smooth     PW     G-vecs:    dense   smooth      PW
     Sum        8239    4123   1103               320405   113427   15555
 

     Title: 
     LaTe3_mp-1078612_primitive.cif                                             


     bravais-lattice index     =            0
     lattice parameter (alat)  =      26.0248  a.u.
     unit-cell volume          =    1803.7499 (a.u.)^3
     number of atoms/cell      =            8
     number of atomic types    =            2
     number of electrons       =       138.00
     number of Kohn-Sham states=           69
     kinetic-energy cutoff     =      60.0000  Ry
     charge density cutoff     =     480.0000  Ry
     convergence threshold     =      1.0E-07
     mixing beta               =       0.5000
     number of iterations used =            8  plain     mixing
     Exchange-correlation      = PBE ( 1  4  3  4 0 0)
     nstep                     =          400


     celldm(1)=  26.024825  celldm(2)=   0.000000  celldm(3)=   0.000000
     celldm(4)=   0.000000  celldm(5)=   0.000000  celldm(6)=   0.000000

     crystal axes: (cart. coord. in units of alat)
               a(1) = (   1.000000   0.000000   0.000000 )  
               a(2) = (  -0.948040   0.318150   0.000000 )  
               a(3) = (   0.000000   0.000000   0.321648 )  

     reciprocal axes: (cart. coord. in units 2 pi/alat)
               b(1) = (  1.000000  2.979855  0.000000 )  
               b(2) = (  0.000000  3.143173  0.000000 )  
               b(3) = (  0.000000  0.000000  3.108987 )  


     PseudoPot. # 1 for La read from file:
     /soft/espresso/pslibrary.1.0.0/pbe/PSEUDOPOTENTIALS/La.pbe-spdfn-rrkjus_psl.1.0.0.UPF
     MD5 check sum: 96159be751344b2bee11c762977bbd84
     Pseudo is Ultrasoft + core correction, Zval = 21.0
     Generated using "atomic" code by A. Dal Corso v.5.1
     Using radial grid of 1253 points,  8 beta functions with: 
                l(1) =   0
                l(2) =   0
                l(3) =   1
                l(4) =   1
                l(5) =   2
                l(6) =   2
                l(7) =   3
                l(8) =   3
     Q(r) pseudized with 0 coefficients 


     PseudoPot. # 2 for Te read from file:
     /soft/espresso/pslibrary.1.0.0/pbe/PSEUDOPOTENTIALS/Te.pbe-dn-rrkjus_psl.1.0.0.UPF
     MD5 check sum: 9d9aa100a850b8708ed88d0b32baef88
     Pseudo is Ultrasoft + core correction, Zval = 16.0
     Generated using "atomic" code by A. Dal Corso v.5.1
     Using radial grid of 1245 points,  6 beta functions with: 
                l(1) =   0
                l(2) =   0
                l(3) =   1
                l(4) =   1
                l(5) =   2
                l(6) =   2
     Q(r) pseudized with 0 coefficients 


     atomic species   valence    mass     pseudopotential
        La            21.00   138.90500     La( 1.00)
        Te            16.00   127.60000     Te( 1.00)

      4 Sym. Ops., with inversion, found ( 2 have fractional translation)



   Cartesian axes

     site n.     atom                  positions (alat units)
         1           La  tau(   1) = (   0.6685721   0.0541281   0.0804120  )
         2           La  tau(   2) = (  -0.6166125   0.2640218   0.2412361  )
         3           Te  tau(   3) = (  -0.8033322   0.2945164   0.0804120  )
         4           Te  tau(   4) = (   0.8552918   0.0236334   0.2412361  )
         5           Te  tau(   5) = (  -0.1201953   0.1829479   0.0804120  )
         6           Te  tau(   6) = (   0.1721549   0.1352019   0.2412361  )
         7           Te  tau(   7) = (   0.4253787   0.0938459   0.0804120  )
         8           Te  tau(   8) = (  -0.3734192   0.2243039   0.2412361  )

     number of k points=     2
                       cart. coord. in units 2pi/alat
        k(    1) = (   0.0000000   0.0000000   0.0000000), wk =   0.6666667
        k(    2) = (   0.0000000   0.0000000   1.0363289), wk =   1.3333333

     Dense  grid:   320405 G-vectors     FFT dimensions: ( 192, 192,  60)

     Smooth grid:   113427 G-vectors     FFT dimensions: ( 135, 135,  48)

     Estimated max dynamical RAM per process >       3.34 GB

     Initial potential from superposition of free atoms

     starting charge  137.98163, renormalised to  138.00000
     Starting wfcs are   98 atomic wfcs

     total cpu time spent up to now is       16.5 secs

     Self-consistent Calculation

     iteration #  1     ecut=    60.00 Ry     beta= 0.50
     Davidson diagonalization with overlap
     ethr =  1.00E-04,  avg # of iterations =  6.5

     total cpu time spent up to now is       41.7 secs

     total energy              =   -2051.16849308 Ry
     Harris-Foulkes estimate   =   -2052.33038259 Ry
     estimated scf accuracy    <       1.82138762 Ry

     iteration #  2     ecut=    60.00 Ry     beta= 0.50
     Davidson diagonalization with overlap
     ethr =  1.32E-03,  avg # of iterations =  7.5

     total cpu time spent up to now is       65.2 secs

     total energy              =   -2048.93335586 Ry
     Harris-Foulkes estimate   =   -2056.69066273 Ry
     estimated scf accuracy    <      60.86901650 Ry

     iteration #  3     ecut=    60.00 Ry     beta= 0.50
     Davidson diagonalization with overlap
     ethr =  1.32E-03,  avg # of iterations =  7.5

     total cpu time spent up to now is       88.5 secs

     total energy              =   -2052.09870728 Ry
     Harris-Foulkes estimate   =   -2052.23570439 Ry
     estimated scf accuracy    <       0.57078977 Ry

     iteration #  4     ecut=    60.00 Ry     beta= 0.50
     Davidson diagonalization with overlap
     ethr =  4.14E-04,  avg # of iterations =  5.0

     total cpu time spent up to now is      110.0 secs

     total energy              =   -2052.14990151 Ry
     Harris-Foulkes estimate   =   -2052.16116451 Ry
     estimated scf accuracy    <       0.09559836 Ry

     iteration #  5     ecut=    60.00 Ry     beta= 0.50
     Davidson diagonalization with overlap
     ethr =  6.93E-05,  avg # of iterations =  5.5

     total cpu time spent up to now is      132.2 secs

     total energy              =   -2052.16341371 Ry
     Harris-Foulkes estimate   =   -2052.16737936 Ry
     estimated scf accuracy    <       0.01456333 Ry

     iteration #  6     ecut=    60.00 Ry     beta= 0.50
     Davidson diagonalization with overlap
     ethr =  1.06E-05,  avg # of iterations =  6.0

     total cpu time spent up to now is      154.5 secs

     total energy              =   -2052.16523638 Ry
     Harris-Foulkes estimate   =   -2052.16641545 Ry
     estimated scf accuracy    <       0.00358459 Ry

     iteration #  7     ecut=    60.00 Ry     beta= 0.50
     Davidson diagonalization with overlap
     ethr =  2.60E-06,  avg # of iterations =  6.0

     total cpu time spent up to now is      177.5 secs

     total energy              =   -2052.16629527 Ry
     Harris-Foulkes estimate   =   -2052.16642628 Ry
     estimated scf accuracy    <       0.00050637 Ry

     iteration #  8     ecut=    60.00 Ry     beta= 0.50
     Davidson diagonalization with overlap
     ethr =  3.67E-07,  avg # of iterations =  5.0

     total cpu time spent up to now is      201.0 secs

     total energy              =   -2052.16641573 Ry
     Harris-Foulkes estimate   =   -2052.16643956 Ry
     estimated scf accuracy    <       0.00005084 Ry

     iteration #  9     ecut=    60.00 Ry     beta= 0.50
     Davidson diagonalization with overlap
     ethr =  3.68E-08,  avg # of iterations =  4.5

     total cpu time spent up to now is      226.0 secs

     total energy              =   -2052.16644068 Ry
     Harris-Foulkes estimate   =   -2052.16645626 Ry
     estimated scf accuracy    <       0.00003262 Ry

     iteration # 10     ecut=    60.00 Ry     beta= 0.50
     Davidson diagonalization with overlap
     ethr =  2.36E-08,  avg # of iterations =  3.0

     total cpu time spent up to now is      248.3 secs

     total energy              =   -2052.16644638 Ry
     Harris-Foulkes estimate   =   -2052.16644631 Ry
     estimated scf accuracy    <       0.00000134 Ry

     iteration # 11     ecut=    60.00 Ry     beta= 0.50
     Davidson diagonalization with overlap
     ethr =  9.73E-10,  avg # of iterations =  6.5

     total cpu time spent up to now is      273.0 secs

     total energy              =   -2052.16644685 Ry
     Harris-Foulkes estimate   =   -2052.16644697 Ry
     estimated scf accuracy    <       0.00000077 Ry

     iteration # 12     ecut=    60.00 Ry     beta= 0.50
     Davidson diagonalization with overlap
     ethr =  5.62E-10,  avg # of iterations =  6.0

     total cpu time spent up to now is      294.8 secs

     total energy              =   -2052.16644695 Ry
     Harris-Foulkes estimate   =   -2052.16644696 Ry
     estimated scf accuracy    <       0.00000011 Ry

     iteration # 13     ecut=    60.00 Ry     beta= 0.50
     Davidson diagonalization with overlap
     ethr =  7.69E-11,  avg # of iterations =  6.0

     total cpu time spent up to now is      319.2 secs

     End of self-consistent calculation

          k = 0.0000 0.0000 0.0000 ( 14201 PWs)   bands (ev):

   -78.8104 -78.7744 -78.6958 -78.5608 -78.5584 -78.5350 -78.4763 -78.4648
   -78.4531 -78.4030 -27.1535 -27.1531 -27.1433 -27.1433 -27.0739 -27.0738
   -27.0199 -27.0197 -27.0008 -27.0007 -26.9611 -26.9608 -26.9338 -26.9335
   -26.9083 -26.9081 -26.8177 -26.8174 -26.7846 -26.7845 -25.8204 -25.8182
   -25.7960 -25.7934 -25.7855 -25.7829 -25.7352 -25.7327 -25.7247 -25.7233
   -22.2547 -22.2517  -6.3767  -6.2939  -6.0436  -6.0339  -5.9245  -5.9145
    -2.8990  -2.7408  -0.6163   0.0007   1.1543   1.1551   5.9033   5.9201
     5.9432   6.0449   6.0640   6.7616   7.2823   8.3598   8.4897   9.1227
     9.1738   9.5782   9.6099   9.7487  11.3849

          k = 0.0000 0.0000 1.0363 ( 14158 PWs)   bands (ev):

   -78.5931 -78.5927 -78.5509 -78.5477 -78.5407 -78.4778 -78.4181 -78.4073
   -78.3963 -78.3126 -27.1379 -27.1378 -27.1314 -27.1313 -27.0775 -27.0774
   -27.0426 -27.0425 -27.0003 -27.0000 -26.9605 -26.9604 -26.9314 -26.9311
   -26.9091 -26.9090 -26.8180 -26.8180 -26.7864 -26.7863 -25.8192 -25.8178
   -25.7956 -25.7944 -25.7847 -25.7836 -25.7347 -25.7338 -25.7237 -25.7229
   -22.2463 -22.2448  -6.3173  -6.2913  -6.2459  -6.2320  -5.8950  -5.8900
    -2.1990  -2.0707  -0.3496  -0.3130  -0.1248   0.1982   6.4458   6.4899
     6.8187   6.9447   7.0370   7.2263   7.5215   7.8552   8.0517   8.3877
     8.4830   8.5448   9.0922   9.2681   9.4618

     highest occupied level (ev):    11.3849

* XDM dispersion
  a1 =     1.215300
  a2 (ang) =     2.370400
  a2 (bohr) =     4.479407
 
+ Volumes and moments
# All results in atomic units (Hartree,bohr)
# i        V             Vfree           M1             M2             M3
  1   3.412700E+02   3.487244E+02   1.153893E+01   3.470864E+02   1.590611E+04
  2   3.412700E+02   3.487244E+02   1.153893E+01   3.470864E+02   1.590611E+04
  3   1.545948E+02   1.582182E+02   1.128474E+01   2.100716E+02   4.624423E+03
  4   1.545948E+02   1.582182E+02   1.128474E+01   2.100716E+02   4.624423E+03
  5   1.553891E+02   1.582182E+02   1.129177E+01   2.107725E+02   4.639816E+03
  6   1.553891E+02   1.582182E+02   1.129177E+01   2.107725E+02   4.639816E+03
  7   1.558451E+02   1.582182E+02   1.045604E+01   1.907316E+02   4.104489E+03
  8   1.558451E+02   1.582182E+02   1.045604E+01   1.907316E+02   4.104489E+03
 
+ Dispersion coefficients
# All results in atomic units (Hartree,bohr).
# i   j      C6             C8             C10            Rc            Rvdw
  1   1   1.184972E+03   1.069305E+05   1.103681E+07   9.827593E+00   1.642288E+01
  2   1   1.184972E+03   1.069305E+05   1.103681E+07   9.827593E+00   1.642288E+01
  2   2   1.184972E+03   1.069305E+05   1.103681E+07   9.827593E+00   1.642288E+01
  3   1   3.544691E+02   2.589139E+04   2.101406E+06   8.776744E+00   1.514578E+01
  3   2   3.544691E+02   2.589139E+04   2.101406E+06   8.776744E+00   1.514578E+01
  3   3   2.046252E+02   1.142763E+04   6.332411E+05   7.458527E+00   1.354375E+01
  4   1   3.544691E+02   2.589139E+04   2.101406E+06   8.776744E+00   1.514578E+01
  4   2   3.544691E+02   2.589139E+04   2.101406E+06   8.776744E+00   1.514578E+01
  4   3   2.046252E+02   1.142763E+04   6.332411E+05   7.458527E+00   1.354375E+01
  4   4   2.046252E+02   1.142763E+04   6.332411E+05   7.458527E+00   1.354375E+01
  5   1   3.560448E+02   2.603344E+04   2.113807E+06   8.779899E+00   1.514962E+01
  5   2   3.560448E+02   2.603344E+04   2.113807E+06   8.779899E+00   1.514962E+01
  5   3   2.052136E+02   1.147603E+04   6.363269E+05   7.462240E+00   1.354827E+01
  5   4   2.052136E+02   1.147603E+04   6.363269E+05   7.462240E+00   1.354827E+01
  5   5   2.058048E+02   1.152467E+04   6.394307E+05   7.465954E+00   1.355278E+01
  6   1   3.560448E+02   2.603344E+04   2.113807E+06   8.779899E+00   1.514962E+01
  6   2   3.560448E+02   2.603344E+04   2.113807E+06   8.779899E+00   1.514962E+01
  6   3   2.052136E+02   1.147603E+04   6.363269E+05   7.462240E+00   1.354827E+01
  6   4   2.052136E+02   1.147603E+04   6.363269E+05   7.462240E+00   1.354827E+01
  6   5   2.058048E+02   1.152467E+04   6.394307E+05   7.465954E+00   1.355278E+01
  6   6   2.058048E+02   1.152467E+04   6.394307E+05   7.465954E+00   1.355278E+01
  7   1   3.525915E+02   2.555630E+04   2.061441E+06   8.746378E+00   1.510888E+01
  7   2   3.525915E+02   2.555630E+04   2.061441E+06   8.746378E+00   1.510888E+01
  7   3   1.975879E+02   1.092369E+04   5.988656E+05   7.419812E+00   1.349670E+01
  7   4   1.975879E+02   1.092369E+04   5.988656E+05   7.419812E+00   1.349670E+01
  7   5   1.981748E+02   1.097115E+04   6.018504E+05   7.423535E+00   1.350123E+01
  7   6   1.981748E+02   1.097115E+04   6.018504E+05   7.423535E+00   1.350123E+01
  7   7   1.911319E+02   1.045947E+04   5.672249E+05   7.380848E+00   1.344935E+01
  8   1   3.525915E+02   2.555630E+04   2.061441E+06   8.746378E+00   1.510888E+01
  8   2   3.525915E+02   2.555630E+04   2.061441E+06   8.746378E+00   1.510888E+01
  8   3   1.975879E+02   1.092369E+04   5.988656E+05   7.419812E+00   1.349670E+01
  8   4   1.975879E+02   1.092369E+04   5.988656E+05   7.419812E+00   1.349670E+01
  8   5   1.981748E+02   1.097115E+04   6.018504E+05   7.423535E+00   1.350123E+01
  8   6   1.981748E+02   1.097115E+04   6.018504E+05   7.423535E+00   1.350123E+01
  8   7   1.911319E+02   1.045947E+04   5.672249E+05   7.380848E+00   1.344935E+01
  8   8   1.911319E+02   1.045947E+04   5.672249E+05   7.380848E+00   1.344935E+01
 
+ van der Waals energies, forces and stresses (Ry,bohr)
  Evdw(total,Ry)   =  -3.093962612908E-02
  Evdw(C6,Ry)      =  -2.320487110670E-02
  Evdw(C8,Ry)      =  -5.917068919796E-03
  Evdw(C10,Ry)     =  -1.817686102593E-03
  Fvdw (001,Ry/bohr) =  -1.328414340360E-05   2.169538422711E-06  -7.531707565167E-21
  Fvdw (002,Ry/bohr) =   1.328414340360E-05  -2.169538422711E-06   1.234952789447E-20
  Fvdw (003,Ry/bohr) =  -3.258568381363E-06   5.321825496473E-07  -1.478548022889E-20
  Fvdw (004,Ry/bohr) =   3.258568381362E-06  -5.321825496470E-07   5.683566542678E-21
  Fvdw (005,Ry/bohr) =   1.636809455526E-06  -2.673202852863E-07  -7.173215921135E-21
  Fvdw (006,Ry/bohr) =  -1.636809455526E-06   2.673202852860E-07   1.462232906171E-20
  Fvdw (007,Ry/bohr) =   1.288136670639E-05  -2.103757777783E-06  -1.034971918456E-20
  Fvdw (008,Ry/bohr) =  -1.288136670639E-05   2.103757777783E-06   3.265680747338E-20
  sigma_vdw (Ry/bohr**3) =  -1.715612102637E-05  -4.461880870346E-08  -4.768475047011E-23  
                            -4.461880870346E-08  -1.742203616844E-05   4.572463419667E-23  
                            -4.768475047011E-23   4.572463419667E-23  -1.744147251397E-05  
  sigma_vdw (GPa) =  -2.523752110334E-01  -6.563652264568E-04  -7.014667793768E-19  
                     -6.563652264568E-04  -2.562869571673E-01   6.726324783481E-19  
                     -7.014667793768E-19   6.726324783481E-19  -2.565728756332E-01  
 

!    total energy              =   -2052.19738658 Ry
     Harris-Foulkes estimate   =   -2052.19738663 Ry
     estimated scf accuracy    <       0.00000007 Ry

     The total energy is the sum of the following terms:

     one-electron contribution =   -1190.33594286 Ry
     hartree contribution      =     620.08574032 Ry
     xc contribution           =    -400.80199800 Ry
     ewald contribution        =   -1081.11424640 Ry
     Dispersion XDM Correction =      -0.03093963 Ry

     convergence has been achieved in  13 iterations

     Forces acting on atoms (cartesian axes, Ry/au):

     atom    1 type  1   force =    -0.02018391    0.00329639    0.00000000
     atom    2 type  1   force =     0.02018391   -0.00329639    0.00000000
     atom    3 type  2   force =     0.01593487   -0.00260245    0.00000000
     atom    4 type  2   force =    -0.01593487    0.00260245    0.00000000
     atom    5 type  2   force =     0.00745157   -0.00121698    0.00000000
     atom    6 type  2   force =    -0.00745157    0.00121698    0.00000000
     atom    7 type  2   force =    -0.02334951    0.00381339    0.00000000
     atom    8 type  2   force =     0.02334951   -0.00381339    0.00000000

     Total force =     0.050906     Total SCF correction =     0.001894


     Computing stress (Cartesian axis) and pressure

          total   stress  (Ry/bohr**3)                   (kbar)     P=-3848.15
  -0.02666671   0.00027365   0.00000000      -3922.81     40.26      0.00
   0.00027365  -0.02503584   0.00000000         40.26  -3682.90      0.00
   0.00000000   0.00000000  -0.02677499          0.00      0.00  -3938.74


     BFGS Geometry Optimization

     number of scf cycles    =   1
     number of bfgs steps    =   0

     energy   new            =   -2052.1973865766 Ry

     new trust radius        =       0.0236588564 bohr
     new conv_thr            =       0.0000001000 Ry


ATOMIC_POSITIONS (crystal)
La       0.829467875   0.170532125   0.250000000
La       0.170532125   0.829467875   0.750000000
Te       0.074598313   0.925401687   0.250000000
Te       0.925401687   0.074598313   0.750000000
Te       0.425109981   0.574890019   0.250000000
Te       0.574890019   0.425109981   0.750000000
Te       0.704565434   0.295434566   0.250000000
Te       0.295434566   0.704565434   0.750000000


     NEW-OLD atomic charge density approx. for the potential

     total cpu time spent up to now is      637.1 secs

     Self-consistent Calculation

     iteration #  1     ecut=    60.00 Ry     beta= 0.50
     Davidson diagonalization with overlap
     ethr =  1.00E-06,  avg # of iterations =  9.0

     total cpu time spent up to now is      665.8 secs

     total energy              =   -2052.16869151 Ry
     Harris-Foulkes estimate   =   -2052.16838626 Ry
     estimated scf accuracy    <       0.00131537 Ry

     iteration #  2     ecut=    60.00 Ry     beta= 0.50
     Davidson diagonalization with overlap
     ethr =  9.53E-07,  avg # of iterations =  2.5

     total cpu time spent up to now is      686.7 secs

     total energy              =   -2052.16891790 Ry
     Harris-Foulkes estimate   =   -2052.16878090 Ry
     estimated scf accuracy    <       0.00027037 Ry

     iteration #  3     ecut=    60.00 Ry     beta= 0.50
     Davidson diagonalization with overlap
     ethr =  1.96E-07,  avg # of iterations =  4.5

     total cpu time spent up to now is      709.6 secs

     total energy              =   -2052.16894444 Ry
     Harris-Foulkes estimate   =   -2052.16899203 Ry
     estimated scf accuracy    <       0.00019702 Ry

     iteration #  4     ecut=    60.00 Ry     beta= 0.50
     Davidson diagonalization with overlap
     ethr =  1.43E-07,  avg # of iterations =  7.0

     total cpu time spent up to now is      732.0 secs

     total energy              =   -2052.16894563 Ry
     Harris-Foulkes estimate   =   -2052.16904641 Ry
     estimated scf accuracy    <       0.00086739 Ry

     iteration #  5     ecut=    60.00 Ry     beta= 0.50
     Davidson diagonalization with overlap
     ethr =  1.43E-07,  avg # of iterations =  6.5

     total cpu time spent up to now is      753.5 secs

     total energy              =   -2052.16899132 Ry
     Harris-Foulkes estimate   =   -2052.16899518 Ry
     estimated scf accuracy    <       0.00001266 Ry

     iteration #  6     ecut=    60.00 Ry     beta= 0.50
     Davidson diagonalization with overlap
     ethr =  9.17E-09,  avg # of iterations =  7.5

     total cpu time spent up to now is      777.4 secs

     total energy              =   -2052.16899763 Ry
     Harris-Foulkes estimate   =   -2052.16900210 Ry
     estimated scf accuracy    <       0.00002084 Ry

     iteration #  7     ecut=    60.00 Ry     beta= 0.50
     Davidson diagonalization with overlap
     ethr =  9.17E-09,  avg # of iterations =  3.5

     total cpu time spent up to now is      799.2 secs

     total energy              =   -2052.16899870 Ry
     Harris-Foulkes estimate   =   -2052.16899920 Ry
     estimated scf accuracy    <       0.00000183 Ry

     iteration #  8     ecut=    60.00 Ry     beta= 0.50
     Davidson diagonalization with overlap
     ethr =  1.32E-09,  avg # of iterations =  6.0

     total cpu time spent up to now is      822.2 secs

     End of self-consistent calculation

          k = 0.0000 0.0000 0.0000 ( 14201 PWs)   bands (ev):

   -78.8230 -78.7493 -78.6708 -78.5710 -78.5540 -78.5418 -78.5011 -78.4542
   -78.4485 -78.4251 -27.1501 -27.1497 -27.1398 -27.1398 -27.0712 -27.0711
   -27.0169 -27.0168 -26.9978 -26.9978 -26.9588 -26.9585 -26.9314 -26.9312
   -26.9057 -26.9055 -26.8145 -26.8142 -26.7818 -26.7818 -25.8221 -25.8199
   -25.7980 -25.7954 -25.7868 -25.7842 -25.7376 -25.7353 -25.7266 -25.7252
   -22.2560 -22.2529  -6.3757  -6.2920  -6.0457  -6.0357  -5.9268  -5.9164
    -2.8980  -2.7412  -0.6144  -0.0205   1.1597   1.1604   5.9062   5.9257
     5.9503   6.0494   6.0705   6.7585   7.2841   8.3707   8.5003   9.1282
     9.1805   9.5583   9.6140   9.7282  11.3746

          k = 0.0000 0.0000 1.0363 ( 14158 PWs)   bands (ev):

   -78.6030 -78.5879 -78.5489 -78.5452 -78.5320 -78.4723 -78.4258 -78.4083
   -78.4039 -78.3164 -27.1344 -27.1343 -27.1279 -27.1278 -27.0748 -27.0747
   -27.0398 -27.0397 -26.9973 -26.9971 -26.9582 -26.9581 -26.9290 -26.9287
   -26.9065 -26.9064 -26.8148 -26.8148 -26.7836 -26.7835 -25.8208 -25.8195
   -25.7975 -25.7964 -25.7861 -25.7849 -25.7372 -25.7363 -25.7256 -25.7248
   -22.2475 -22.2459  -6.3184  -6.2935  -6.2482  -6.2328  -5.8966  -5.8914
    -2.1970  -2.0698  -0.3454  -0.3061  -0.1226   0.1914   6.4514   6.4888
     6.8258   6.9513   7.0275   7.2287   7.5149   7.8458   8.0380   8.3840
     8.4554   8.5472   9.0910   9.2698   9.4710

     highest occupied level (ev):    11.3746

* XDM dispersion
  a1 =     1.215300
  a2 (ang) =     2.370400
  a2 (bohr) =     4.479407
 
+ van der Waals energies, forces and stresses (Ry,bohr)
  Evdw(total,Ry)   =  -3.093947714890E-02
  Evdw(C6,Ry)      =  -2.320480329475E-02
  Evdw(C8,Ry)      =  -5.917002233976E-03
  Evdw(C10,Ry)     =  -1.817671620183E-03
  Fvdw (001,Ry/bohr) =  -1.357809711518E-05   2.217546325998E-06  -3.529694690390E-20
  Fvdw (002,Ry/bohr) =   1.357809711518E-05  -2.217546325998E-06   2.418158936404E-20
  Fvdw (003,Ry/bohr) =  -3.465591424822E-06   5.659931186494E-07  -9.887334929232E-21
  Fvdw (004,Ry/bohr) =   3.465591424822E-06  -5.659931186486E-07   5.427140486138E-21
  Fvdw (005,Ry/bohr) =   1.745697112546E-06  -2.851035889189E-07  -6.427576279478E-21
  Fvdw (006,Ry/bohr) =  -1.745697112547E-06   2.851035889190E-07   2.275983947368E-20
  Fvdw (007,Ry/bohr) =   1.304870753896E-05  -2.131087531380E-06  -2.602889712716E-20
  Fvdw (008,Ry/bohr) =  -1.304870753896E-05   2.131087531380E-06   3.031680597943E-20
  sigma_vdw (Ry/bohr**3) =  -1.715156466015E-05  -4.527860070930E-08  -8.929754015574E-23  
                            -4.527860070930E-08  -1.742141197097E-05  -2.318833161687E-23  
                            -8.929754015574E-23  -2.318833161687E-23  -1.743988330193E-05  
  sigma_vdw (GPa) =  -2.523081845835E-01  -6.660711003228E-04  -1.313611946834E-18  
                     -6.660711003228E-04  -2.562777749070E-01  -3.411120775101E-19  
                     -1.313611946834E-18  -3.411120775101E-19  -2.565494975209E-01  
 

!    total energy              =   -2052.19993864 Ry
     Harris-Foulkes estimate   =   -2052.19993868 Ry
     estimated scf accuracy    <       0.00000009 Ry

     The total energy is the sum of the following terms:

     one-electron contribution =   -1191.66487561 Ry
     hartree contribution      =     620.75261099 Ry
     xc contribution           =    -400.80507668 Ry
     ewald contribution        =   -1080.45165787 Ry
     Dispersion XDM Correction =      -0.03093948 Ry

     convergence has been achieved in   8 iterations

     Forces acting on atoms (cartesian axes, Ry/au):

     atom    1 type  1   force =    -0.01811977    0.00295928    0.00000000
     atom    2 type  1   force =     0.01811977   -0.00295928    0.00000000
     atom    3 type  2   force =     0.01699668   -0.00277586    0.00000000
     atom    4 type  2   force =    -0.01699668    0.00277586    0.00000000
     atom    5 type  2   force =     0.00804820   -0.00131442    0.00000000
     atom    6 type  2   force =    -0.00804820    0.00131442    0.00000000
     atom    7 type  2   force =    -0.02196456    0.00358721    0.00000000
     atom    8 type  2   force =     0.02196456   -0.00358721    0.00000000

     Total force =     0.048898     Total SCF correction =     0.001522


     Computing stress (Cartesian axis) and pressure

          total   stress  (Ry/bohr**3)                   (kbar)     P=-3847.95
  -0.02666253   0.00027306   0.00000000      -3922.19     40.17      0.00
   0.00027306  -0.02503518   0.00000000         40.17  -3682.80      0.00
   0.00000000   0.00000000  -0.02677582          0.00      0.00  -3938.86


     number of scf cycles    =   2
     number of bfgs steps    =   1

     energy   old            =   -2052.1973865766 Ry
     energy   new            =   -2052.1999386425 Ry

     CASE: energy  _new < energy  _old


     WARNING: bfgs curvature condition failed, Theta= 0.835
     new trust radius        =       0.0260247420 bohr
     new conv_thr            =       0.0000000220 Ry


ATOMIC_POSITIONS (crystal)
La       0.829039882   0.170960118   0.250000000
La       0.170960118   0.829039882   0.750000000
Te       0.074967078   0.925032922   0.250000000
Te       0.925032922   0.074967078   0.750000000
Te       0.425283574   0.574716426   0.250000000
Te       0.574716426   0.425283574   0.750000000
Te       0.704058811   0.295941189   0.250000000
Te       0.295941189   0.704058811   0.750000000


     NEW-OLD atomic charge density approx. for the potential

     total cpu time spent up to now is      856.8 secs

     Self-consistent Calculation

     iteration #  1     ecut=    60.00 Ry     beta= 0.50
     Davidson diagonalization with overlap
     ethr =  1.00E-06,  avg # of iterations = 10.0

     total cpu time spent up to now is      885.9 secs

     total energy              =   -2052.17139293 Ry
     Harris-Foulkes estimate   =   -2052.17105590 Ry
     estimated scf accuracy    <       0.00153976 Ry

     iteration #  2     ecut=    60.00 Ry     beta= 0.50
     Davidson diagonalization with overlap
     ethr =  1.12E-06,  avg # of iterations =  4.5

     total cpu time spent up to now is      907.4 secs

     total energy              =   -2052.17113749 Ry
     Harris-Foulkes estimate   =   -2052.17160009 Ry
     estimated scf accuracy    <       0.00153326 Ry

     iteration #  3     ecut=    60.00 Ry     beta= 0.50
     Davidson diagonalization with overlap
     ethr =  1.11E-06,  avg # of iterations =  6.0

     total cpu time spent up to now is      929.4 secs

     total energy              =   -2052.17115064 Ry
     Harris-Foulkes estimate   =   -2052.17216390 Ry
     estimated scf accuracy    <       0.00857245 Ry

     iteration #  4     ecut=    60.00 Ry     beta= 0.50
     Davidson diagonalization with overlap
     ethr =  1.11E-06,  avg # of iterations =  7.0

     total cpu time spent up to now is      951.1 secs

     total energy              =   -2052.17171912 Ry
     Harris-Foulkes estimate   =   -2052.17175166 Ry
     estimated scf accuracy    <       0.00013143 Ry

     iteration #  5     ecut=    60.00 Ry     beta= 0.50
     Davidson diagonalization with overlap
     ethr =  9.52E-08,  avg # of iterations =  6.0

     total cpu time spent up to now is      973.9 secs

     total energy              =   -2052.17175565 Ry
     Harris-Foulkes estimate   =   -2052.17175930 Ry
     estimated scf accuracy    <       0.00001520 Ry

     iteration #  6     ecut=    60.00 Ry     beta= 0.50
     Davidson diagonalization with overlap
     ethr =  1.10E-08,  avg # of iterations =  5.0

     total cpu time spent up to now is      996.6 secs

     total energy              =   -2052.17175837 Ry
     Harris-Foulkes estimate   =   -2052.17175912 Ry
     estimated scf accuracy    <       0.00000233 Ry

     iteration #  7     ecut=    60.00 Ry     beta= 0.50
     Davidson diagonalization with overlap
     ethr =  1.69E-09,  avg # of iterations =  5.0

     total cpu time spent up to now is     1021.2 secs

     total energy              =   -2052.17175945 Ry
     Harris-Foulkes estimate   =   -2052.17175957 Ry
     estimated scf accuracy    <       0.00000067 Ry

     iteration #  8     ecut=    60.00 Ry     beta= 0.50
     Davidson diagonalization with overlap
     ethr =  4.84E-10,  avg # of iterations =  3.0

     total cpu time spent up to now is     1043.4 secs

     total energy              =   -2052.17175952 Ry
     Harris-Foulkes estimate   =   -2052.17175956 Ry
     estimated scf accuracy    <       0.00000008 Ry

     iteration #  9     ecut=    60.00 Ry     beta= 0.50
     Davidson diagonalization with overlap
     ethr =  5.89E-11,  avg # of iterations =  5.0

     total cpu time spent up to now is     1067.6 secs

     total energy              =   -2052.17175959 Ry
     Harris-Foulkes estimate   =   -2052.17175958 Ry
     estimated scf accuracy    <       0.00000005 Ry

     iteration # 10     ecut=    60.00 Ry     beta= 0.50
     Davidson diagonalization with overlap
     ethr =  3.91E-11,  avg # of iterations =  3.5

     total cpu time spent up to now is     1088.6 secs

     End of self-consistent calculation

          k = 0.0000 0.0000 0.0000 ( 14201 PWs)   bands (ev):

   -78.8370 -78.7137 -78.6329 -78.5818 -78.5779 -78.5375 -78.5129 -78.4579
   -78.4442 -78.4412 -27.1460 -27.1457 -27.1356 -27.1355 -27.0678 -27.0676
   -27.0133 -27.0132 -26.9944 -26.9944 -26.9561 -26.9558 -26.9288 -26.9286
   -26.9026 -26.9025 -26.8111 -26.8108 -26.7788 -26.7788 -25.8242 -25.8220
   -25.8004 -25.7979 -25.7887 -25.7861 -25.7410 -25.7387 -25.7294 -25.7281
   -22.2571 -22.2539  -6.3742  -6.2896  -6.0483  -6.0380  -5.9295  -5.9188
    -2.8959  -2.7406  -0.6135  -0.0442   1.1656   1.1663   5.9097   5.9328
     5.9591   6.0553   6.0786   6.7551   7.2870   8.3819   8.5113   9.1330
     9.1864   9.5358   9.6182   9.7054  11.3627

          k = 0.0000 0.0000 1.0363 ( 14158 PWs)   bands (ev):

   -78.6094 -78.5794 -78.5506 -78.5345 -78.5204 -78.4663 -78.4372 -78.4130
   -78.4090 -78.3217 -27.1301 -27.1299 -27.1237 -27.1236 -27.0715 -27.0713
   -27.0363 -27.0362 -26.9939 -26.9938 -26.9555 -26.9554 -26.9263 -26.9262
   -26.9035 -26.9033 -26.8115 -26.8114 -26.7806 -26.7804 -25.8229 -25.8216
   -25.8000 -25.7989 -25.7880 -25.7868 -25.7405 -25.7397 -25.7284 -25.7276
   -22.2486 -22.2470  -6.3196  -6.2964  -6.2506  -6.2333  -5.8986  -5.8932
    -2.1940  -2.0680  -0.3404  -0.2983  -0.1210   0.1832   6.4573   6.4870
     6.8343   6.9593   7.0170   7.2315   7.5070   7.8345   8.0220   8.3806
     8.4244   8.5494   9.0894   9.2716   9.4819

     highest occupied level (ev):    11.3627

* XDM dispersion
  a1 =     1.215300
  a2 (ang) =     2.370400
  a2 (bohr) =     4.479407
 
+ van der Waals energies, forces and stresses (Ry,bohr)
  Evdw(total,Ry)   =  -3.093929116391E-02
  Evdw(C6,Ry)      =  -2.320471618598E-02
  Evdw(C8,Ry)      =  -5.916922869672E-03
  Evdw(C10,Ry)     =  -1.817652108258E-03
  Fvdw (001,Ry/bohr) =  -1.389742563561E-05   2.269698389812E-06  -2.811914169763E-20
  Fvdw (002,Ry/bohr) =   1.389742563561E-05  -2.269698389812E-06  -1.684832109195E-21
  Fvdw (003,Ry/bohr) =  -3.699808267580E-06   6.042449218825E-07  -2.464631030751E-20
  Fvdw (004,Ry/bohr) =   3.699808267579E-06  -6.042449218826E-07  -1.243596085499E-20
  Fvdw (005,Ry/bohr) =   1.868711329998E-06  -3.051940127577E-07  -1.573772696766E-20
  Fvdw (006,Ry/bohr) =  -1.868711329999E-06   3.051940127578E-07   7.032574862555E-21
  Fvdw (007,Ry/bohr) =   1.323715452429E-05  -2.161864297549E-06  -1.848782811725E-20
  Fvdw (008,Ry/bohr) =  -1.323715452429E-05   2.161864297548E-06   1.627314158517E-20
  sigma_vdw (Ry/bohr**3) =  -1.714667326352E-05  -4.599028618794E-08  -7.388544351262E-23  
                            -4.599028618794E-08  -1.742076201311E-05  -6.619278673162E-24  
                            -7.388544351262E-23  -6.619278673162E-24  -1.743808748943E-05  
  sigma_vdw (GPa) =  -2.522362296670E-01  -6.765403534008E-04  -1.086892215911E-18  
                     -6.765403534008E-04  -2.562682136984E-01  -9.737293467796E-20  
                     -1.086892215911E-18  -9.737293467796E-20  -2.565230802114E-01  
 

!    total energy              =   -2052.20269888 Ry
     Harris-Foulkes estimate   =   -2052.20269888 Ry
     estimated scf accuracy    <       0.00000001 Ry

     The total energy is the sum of the following terms:

     one-electron contribution =   -1193.17994109 Ry
     hartree contribution      =     621.51074608 Ry
     xc contribution           =    -400.80754500 Ry
     ewald contribution        =   -1079.69501958 Ry
     Dispersion XDM Correction =      -0.03093929 Ry

     convergence has been achieved in  10 iterations

     Forces acting on atoms (cartesian axes, Ry/au):

     atom    1 type  1   force =    -0.01745495    0.00285071    0.00000000
     atom    2 type  1   force =     0.01745495   -0.00285071    0.00000000
     atom    3 type  2   force =     0.01812128   -0.00295953    0.00000000
     atom    4 type  2   force =    -0.01812128    0.00295953    0.00000000
     atom    5 type  2   force =     0.00894181   -0.00146036    0.00000000
     atom    6 type  2   force =    -0.00894181    0.00146036    0.00000000
     atom    7 type  2   force =    -0.02034399    0.00332254    0.00000000
     atom    8 type  2   force =     0.02034399   -0.00332254    0.00000000

     Total force =     0.048103     Total SCF correction =     0.000374


     Computing stress (Cartesian axis) and pressure

          total   stress  (Ry/bohr**3)                   (kbar)     P=-3848.34
  -0.02666191   0.00027240   0.00000000      -3922.10     40.07      0.00
   0.00027240  -0.02503849   0.00000000         40.07  -3683.29      0.00
   0.00000000   0.00000000  -0.02678110          0.00      0.00  -3939.64


     number of scf cycles    =   3
     number of bfgs steps    =   2

     energy   old            =   -2052.1999386425 Ry
     energy   new            =   -2052.2026988773 Ry

     CASE: energy  _new < energy  _old

     new trust radius        =       0.0390371130 bohr
     new conv_thr            =       0.0000000203 Ry


ATOMIC_POSITIONS (crystal)
La       0.828378395   0.171621605   0.250000000
La       0.171621605   0.828378395   0.750000000
Te       0.075580714   0.924419286   0.250000000
Te       0.924419286   0.075580714   0.750000000
Te       0.425582150   0.574417850   0.250000000
Te       0.574417850   0.425582150   0.750000000
Te       0.703298877   0.296701123   0.250000000
Te       0.296701123   0.703298877   0.750000000


     NEW-OLD atomic charge density approx. for the potential

     total cpu time spent up to now is     1123.2 secs

     Self-consistent Calculation

     iteration #  1     ecut=    60.00 Ry     beta= 0.50
     Davidson diagonalization with overlap
     ethr =  1.00E-06,  avg # of iterations =  9.5

     total cpu time spent up to now is     1155.2 secs

     total energy              =   -2052.17513676 Ry
     Harris-Foulkes estimate   =   -2052.17428417 Ry
     estimated scf accuracy    <       0.00360511 Ry

     iteration #  2     ecut=    60.00 Ry     beta= 0.50
     Davidson diagonalization with overlap
     ethr =  2.61E-06,  avg # of iterations =  4.0

     total cpu time spent up to now is     1176.4 secs

     total energy              =   -2052.17476323 Ry
     Harris-Foulkes estimate   =   -2052.17545655 Ry
     estimated scf accuracy    <       0.00244714 Ry

     iteration #  3     ecut=    60.00 Ry     beta= 0.50
     Davidson diagonalization with overlap
     ethr =  1.77E-06,  avg # of iterations =  6.5

     total cpu time spent up to now is     1198.8 secs

     total energy              =   -2052.17437390 Ry
     Harris-Foulkes estimate   =   -2052.17706938 Ry
     estimated scf accuracy    <       0.02099475 Ry

     iteration #  4     ecut=    60.00 Ry     beta= 0.50
     Davidson diagonalization with overlap
     ethr =  1.77E-06,  avg # of iterations =  8.0

     total cpu time spent up to now is     1221.1 secs

     total energy              =   -2052.17581827 Ry
     Harris-Foulkes estimate   =   -2052.17586029 Ry
     estimated scf accuracy    <       0.00019282 Ry

     iteration #  5     ecut=    60.00 Ry     beta= 0.50
     Davidson diagonalization with overlap
     ethr =  1.40E-07,  avg # of iterations =  6.5

     total cpu time spent up to now is     1243.5 secs

     total energy              =   -2052.17586796 Ry
     Harris-Foulkes estimate   =   -2052.17586970 Ry
     estimated scf accuracy    <       0.00002131 Ry

     iteration #  6     ecut=    60.00 Ry     beta= 0.50
     Davidson diagonalization with overlap
     ethr =  1.54E-08,  avg # of iterations =  4.5

     total cpu time spent up to now is     1266.9 secs

     total energy              =   -2052.17587348 Ry
     Harris-Foulkes estimate   =   -2052.17587530 Ry
     estimated scf accuracy    <       0.00000509 Ry

     iteration #  7     ecut=    60.00 Ry     beta= 0.50
     Davidson diagonalization with overlap
     ethr =  3.69E-09,  avg # of iterations =  4.5

     total cpu time spent up to now is     1289.8 secs

     total energy              =   -2052.17587480 Ry
     Harris-Foulkes estimate   =   -2052.17587482 Ry
     estimated scf accuracy    <       0.00000048 Ry

     iteration #  8     ecut=    60.00 Ry     beta= 0.50
     Davidson diagonalization with overlap
     ethr =  3.46E-10,  avg # of iterations =  5.0

     total cpu time spent up to now is     1314.5 secs

     total energy              =   -2052.17587510 Ry
     Harris-Foulkes estimate   =   -2052.17587506 Ry
     estimated scf accuracy    <       0.00000014 Ry

     iteration #  9     ecut=    60.00 Ry     beta= 0.50
     Davidson diagonalization with overlap
     ethr =  1.02E-10,  avg # of iterations =  4.5

     total cpu time spent up to now is     1336.4 secs

     End of self-consistent calculation

          k = 0.0000 0.0000 0.0000 ( 14201 PWs)   bands (ev):

   -78.8656 -78.6538 -78.6171 -78.6121 -78.6013 -78.5619 -78.5260 -78.4547
   -78.4441 -78.4239 -27.1382 -27.1378 -27.1275 -27.1275 -27.0608 -27.0607
   -27.0062 -27.0060 -26.9884 -26.9884 -26.9514 -26.9510 -26.9243 -26.9242
   -26.8970 -26.8970 -26.8052 -26.8049 -26.7737 -26.7736 -25.8272 -25.8251
   -25.8040 -25.8016 -25.7917 -25.7891 -25.7465 -25.7443 -25.7340 -25.7328
   -22.2608 -22.2573  -6.3731  -6.2873  -6.0544  -6.0435  -5.9357  -5.9245
    -2.8912  -2.7382  -0.6135  -0.0799   1.1746   1.1756   5.9159   5.9457
     5.9744   6.0663   6.0931   6.7497   7.2933   8.3977   8.5272   9.1386
     9.1934   9.5019   9.6244   9.6717  11.3429

          k = 0.0000 0.0000 1.0363 ( 14158 PWs)   bands (ev):

   -78.6154 -78.5659 -78.5600 -78.5150 -78.5095 -78.4636 -78.4585 -78.4318
   -78.4114 -78.3342 -27.1219 -27.1218 -27.1158 -27.1156 -27.0646 -27.0644
   -27.0293 -27.0292 -26.9879 -26.9878 -26.9507 -26.9507 -26.9219 -26.9218
   -26.8979 -26.8977 -26.8055 -26.8055 -26.7755 -26.7753 -25.8259 -25.8247
   -25.8036 -25.8025 -25.7910 -25.7898 -25.7461 -25.7453 -25.7331 -25.7323
   -22.2522 -22.2504  -6.3234  -6.3031  -6.2556  -6.2349  -5.9036  -5.8980
    -2.1879  -2.0637  -0.3317  -0.2857  -0.1192   0.1708   6.4653   6.4837
     6.8488   6.9730   7.0010   7.2358   7.4945   7.8161   7.9969   8.3772
     8.3777   8.5509   9.0859   9.2749   9.5003

     highest occupied level (ev):    11.3429

* XDM dispersion
  a1 =     1.215300
  a2 (ang) =     2.370400
  a2 (bohr) =     4.479407
 
+ van der Waals energies, forces and stresses (Ry,bohr)
  Evdw(total,Ry)   =  -3.093901997893E-02
  Evdw(C6,Ry)      =  -2.320458745660E-02
  Evdw(C8,Ry)      =  -5.916806701461E-03
  Evdw(C10,Ry)     =  -1.817625820870E-03
  Fvdw (001,Ry/bohr) =  -1.439599531738E-05   2.351123743944E-06  -2.579201363939E-20
  Fvdw (002,Ry/bohr) =   1.439599531737E-05  -2.351123743944E-06  -9.358781712672E-21
  Fvdw (003,Ry/bohr) =  -4.043295330337E-06   6.603425081341E-07  -1.779277437500E-20
  Fvdw (004,Ry/bohr) =   4.043295330336E-06  -6.603425081334E-07   1.624289080954E-20
  Fvdw (005,Ry/bohr) =   2.035883627010E-06  -3.324962414780E-07  -1.540147383909E-20
  Fvdw (006,Ry/bohr) =  -2.035883627011E-06   3.324962414780E-07   2.049892919674E-20
  Fvdw (007,Ry/bohr) =   1.353593901029E-05  -2.210661152776E-06  -2.416007678742E-20
  Fvdw (008,Ry/bohr) =  -1.353593901029E-05   2.210661152775E-06   1.992462370086E-20
  sigma_vdw (Ry/bohr**3) =  -1.713873708361E-05  -4.716956128267E-08   1.639848099439E-23  
                            -4.716956128267E-08  -1.741985397029E-05  -8.379920055795E-23  
                             1.639848099439E-23  -8.379920055795E-23  -1.743525270310E-05  
  sigma_vdw (GPa) =  -2.521194844495E-01  -6.938880860520E-04   2.412299432503E-19  
                     -6.938880860520E-04  -2.562548559296E-01  -1.232728592479E-18  
                      2.412299432503E-19  -1.232728592479E-18  -2.564813790717E-01  
 

!    total energy              =   -2052.20681416 Ry
     Harris-Foulkes estimate   =   -2052.20681414 Ry
     estimated scf accuracy    <       0.00000001 Ry

     The total energy is the sum of the following terms:

     one-electron contribution =   -1195.63442983 Ry
     hartree contribution      =     622.74081014 Ry
     xc contribution           =    -400.81172267 Ry
     ewald contribution        =   -1078.47053278 Ry
     Dispersion XDM Correction =      -0.03093902 Ry

     convergence has been achieved in   9 iterations

     Forces acting on atoms (cartesian axes, Ry/au):

     atom    1 type  1   force =    -0.01458084    0.00238131    0.00000000
     atom    2 type  1   force =     0.01458084   -0.00238131    0.00000000
     atom    3 type  2   force =     0.01954409   -0.00319190    0.00000000
     atom    4 type  2   force =    -0.01954409    0.00319190    0.00000000
     atom    5 type  2   force =     0.01000299   -0.00163367    0.00000000
     atom    6 type  2   force =    -0.01000299    0.00163367    0.00000000
     atom    7 type  2   force =    -0.01768194    0.00288778    0.00000000
     atom    8 type  2   force =     0.01768194   -0.00288778    0.00000000

     Total force =     0.045479     Total SCF correction =     0.000190


     Computing stress (Cartesian axis) and pressure

          total   stress  (Ry/bohr**3)                   (kbar)     P=-3848.00
  -0.02665521   0.00027170   0.00000000      -3921.12     39.97      0.00
   0.00027170  -0.02503598   0.00000000         39.97  -3682.92      0.00
   0.00000000   0.00000000  -0.02678325          0.00      0.00  -3939.95


     number of scf cycles    =   4
     number of bfgs steps    =   3

     energy   old            =   -2052.2026988773 Ry
     energy   new            =   -2052.2068141556 Ry

     CASE: energy  _new < energy  _old

     new trust radius        =       0.0585556696 bohr
     new conv_thr            =       0.0000000195 Ry


ATOMIC_POSITIONS (crystal)
La       0.827406794   0.172593206   0.250000000
La       0.172593206   0.827406794   0.750000000
Te       0.076590639   0.923409361   0.250000000
Te       0.923409361   0.076590639   0.750000000
Te       0.426082305   0.573917695   0.250000000
Te       0.573917695   0.426082305   0.750000000
Te       0.702158976   0.297841024   0.250000000
Te       0.297841024   0.702158976   0.750000000


     NEW-OLD atomic charge density approx. for the potential

     total cpu time spent up to now is     1371.0 secs

     Self-consistent Calculation

     iteration #  1     ecut=    60.00 Ry     beta= 0.50
     Davidson diagonalization with overlap
     ethr =  1.00E-06,  avg # of iterations =  9.5

     total cpu time spent up to now is     1405.7 secs

     total energy              =   -2052.18020443 Ry
     Harris-Foulkes estimate   =   -2052.17828725 Ry
     estimated scf accuracy    <       0.00763761 Ry

     iteration #  2     ecut=    60.00 Ry     beta= 0.50
     Davidson diagonalization with overlap
     ethr =  5.53E-06,  avg # of iterations =  3.5

     total cpu time spent up to now is     1426.5 secs

     total energy              =   -2052.18083421 Ry
     Harris-Foulkes estimate   =   -2052.18059158 Ry
     estimated scf accuracy    <       0.00225987 Ry

     iteration #  3     ecut=    60.00 Ry     beta= 0.50
     Davidson diagonalization with overlap
     ethr =  1.64E-06,  avg # of iterations =  6.0

     total cpu time spent up to now is     1449.2 secs

     total energy              =   -2052.17916281 Ry
     Harris-Foulkes estimate   =   -2052.18387393 Ry
     estimated scf accuracy    <       0.03147385 Ry

     iteration #  4     ecut=    60.00 Ry     beta= 0.50
     Davidson diagonalization with overlap
     ethr =  1.64E-06,  avg # of iterations =  7.5

     total cpu time spent up to now is     1472.0 secs

     total energy              =   -2052.18161819 Ry
     Harris-Foulkes estimate   =   -2052.18166293 Ry
     estimated scf accuracy    <       0.00036439 Ry

     iteration #  5     ecut=    60.00 Ry     beta= 0.50
     Davidson diagonalization with overlap
     ethr =  2.64E-07,  avg # of iterations =  6.0

     total cpu time spent up to now is     1493.9 secs

     total energy              =   -2052.18167290 Ry
     Harris-Foulkes estimate   =   -2052.18168017 Ry
     estimated scf accuracy    <       0.00004113 Ry

     iteration #  6     ecut=    60.00 Ry     beta= 0.50
     Davidson diagonalization with overlap
     ethr =  2.98E-08,  avg # of iterations =  5.0

     total cpu time spent up to now is     1516.8 secs

     total energy              =   -2052.18168458 Ry
     Harris-Foulkes estimate   =   -2052.18168602 Ry
     estimated scf accuracy    <       0.00000731 Ry

     iteration #  7     ecut=    60.00 Ry     beta= 0.50
     Davidson diagonalization with overlap
     ethr =  5.30E-09,  avg # of iterations =  5.0

     total cpu time spent up to now is     1539.4 secs

     total energy              =   -2052.18168624 Ry
     Harris-Foulkes estimate   =   -2052.18168613 Ry
     estimated scf accuracy    <       0.00000060 Ry

     iteration #  8     ecut=    60.00 Ry     beta= 0.50
     Davidson diagonalization with overlap
     ethr =  4.31E-10,  avg # of iterations =  5.0

     total cpu time spent up to now is     1564.7 secs

     total energy              =   -2052.18168673 Ry
     Harris-Foulkes estimate   =   -2052.18168661 Ry
     estimated scf accuracy    <       0.00000024 Ry

     iteration #  9     ecut=    60.00 Ry     beta= 0.50
     Davidson diagonalization with overlap
     ethr =  1.75E-10,  avg # of iterations =  3.0

     total cpu time spent up to now is     1586.1 secs

     total energy              =   -2052.18168674 Ry
     Harris-Foulkes estimate   =   -2052.18168676 Ry
     estimated scf accuracy    <       0.00000004 Ry

     iteration # 10     ecut=    60.00 Ry     beta= 0.50
     Davidson diagonalization with overlap
     ethr =  2.91E-11,  avg # of iterations =  5.5

     total cpu time spent up to now is     1610.0 secs

     total energy              =   -2052.18168679 Ry
     Harris-Foulkes estimate   =   -2052.18168677 Ry
     estimated scf accuracy    <       0.00000003 Ry

     iteration # 11     ecut=    60.00 Ry     beta= 0.50
     Davidson diagonalization with overlap
     ethr =  1.88E-11,  avg # of iterations =  3.0

     total cpu time spent up to now is     1630.3 secs

     End of self-consistent calculation

          k = 0.0000 0.0000 0.0000 ( 14201 PWs)   bands (ev):

   -78.9142 -78.7336 -78.6539 -78.6390 -78.6263 -78.5767 -78.4558 -78.4490
   -78.4055 -78.3579 -27.1234 -27.1230 -27.1122 -27.1121 -27.0480 -27.0479
   -26.9932 -26.9930 -26.9776 -26.9776 -26.9430 -26.9427 -26.9167 -26.9165
   -26.8879 -26.8879 -26.7962 -26.7960 -26.7663 -26.7660 -25.8318 -25.8299
   -25.8094 -25.8070 -25.7966 -25.7942 -25.7555 -25.7536 -25.7417 -25.7408
   -22.2684 -22.2646  -6.3732  -6.2856  -6.0664  -6.0547  -5.9477  -5.9356
    -2.8809  -2.7310  -0.6158  -0.1321   1.1868   1.1889   5.9273   5.9690
     6.0014   6.0870   6.1186   6.7423   7.3075   8.4203   8.5511   9.1416
     9.1973   9.4510   9.6226   9.6342  11.3121

          k = 0.0000 0.0000 1.0363 ( 14158 PWs)   bands (ev):

   -78.6162 -78.5843 -78.5573 -78.5145 -78.4995 -78.4970 -78.4614 -78.4460
   -78.3933 -78.3492 -27.1064 -27.1063 -27.1007 -27.1005 -27.0520 -27.0519
   -27.0166 -27.0165 -26.9771 -26.9770 -26.9424 -26.9423 -26.9144 -26.9141
   -26.8889 -26.8885 -26.7966 -26.7965 -26.7681 -26.7677 -25.8304 -25.8294
   -25.8090 -25.8079 -25.7961 -25.7948 -25.7553 -25.7544 -25.7409 -25.7402
   -22.2597 -22.2578  -6.3325  -6.3173  -6.2643  -6.2380  -5.9137  -5.9077
    -2.1757  -2.0542  -0.3170  -0.2652  -0.1178   0.1527   6.4726   6.4769
     6.8731   6.9782   6.9957   7.2420   7.4750   7.7858   7.9589   8.3070
     8.3799   8.5489   9.0771   9.2821   9.5307

     highest occupied level (ev):    11.3121

* XDM dispersion
  a1 =     1.215300
  a2 (ang) =     2.370400
  a2 (bohr) =     4.479407
 
+ van der Waals energies, forces and stresses (Ry,bohr)
  Evdw(total,Ry)   =  -3.093853981317E-02
  Evdw(C6,Ry)      =  -2.320435339305E-02
  Evdw(C8,Ry)      =  -5.916611752950E-03
  Evdw(C10,Ry)     =  -1.817574667170E-03
  Fvdw (001,Ry/bohr) =  -1.513511965157E-05   2.471835979087E-06  -4.120603791243E-20
  Fvdw (002,Ry/bohr) =   1.513511965157E-05  -2.471835979086E-06   1.135597635165E-20
  Fvdw (003,Ry/bohr) =  -4.565549875117E-06   7.456360243853E-07  -1.258047651876E-20
  Fvdw (004,Ry/bohr) =   4.565549875115E-06  -7.456360243845E-07   3.515860725261E-20
  Fvdw (005,Ry/bohr) =   2.293163137441E-06  -3.745145911987E-07  -1.250968611926E-21
  Fvdw (006,Ry/bohr) =  -2.293163137443E-06   3.745145911990E-07   4.236620428086E-20
  Fvdw (007,Ry/bohr) =   1.399598268026E-05  -2.285794519515E-06  -2.171010462412E-20
  Fvdw (008,Ry/bohr) =  -1.399598268026E-05   2.285794519514E-06   2.029099657601E-20
  sigma_vdw (Ry/bohr**3) =  -1.712686674498E-05  -4.895026945233E-08   2.150623123864E-23  
                            -4.895026945233E-08  -1.741859613521E-05   5.846551230235E-23  
                             2.150623123864E-23   5.846551230235E-23  -1.743079518685E-05  
  sigma_vdw (GPa) =  -2.519448657689E-01  -7.200832032009E-04   3.163675308097E-19  
                     -7.200832032009E-04  -2.562363525398E-01   8.600572345462E-19  
                      3.163675308097E-19   8.600572345462E-19  -2.564158067549E-01  
 

!    total energy              =   -2052.21262532 Ry
     Harris-Foulkes estimate   =   -2052.21262533 Ry
     estimated scf accuracy    <          9.0E-09 Ry

     The total energy is the sum of the following terms:

     one-electron contribution =   -1199.53977333 Ry
     hartree contribution      =     624.70006981 Ry
     xc contribution           =    -400.81884177 Ry
     ewald contribution        =   -1076.52314149 Ry
     Dispersion XDM Correction =      -0.03093854 Ry

     convergence has been achieved in  11 iterations

     Forces acting on atoms (cartesian axes, Ry/au):

     atom    1 type  1   force =    -0.01061290    0.00173328    0.00000000
     atom    2 type  1   force =     0.01061290   -0.00173328    0.00000000
     atom    3 type  2   force =     0.02107375   -0.00344172    0.00000000
     atom    4 type  2   force =    -0.02107375    0.00344172    0.00000000
     atom    5 type  2   force =     0.01128417   -0.00184291    0.00000000
     atom    6 type  2   force =    -0.01128417    0.00184291    0.00000000
     atom    7 type  2   force =    -0.01346231    0.00219864    0.00000000
     atom    8 type  2   force =     0.01346231   -0.00219864    0.00000000

     Total force =     0.042152     Total SCF correction =     0.000291


     Computing stress (Cartesian axis) and pressure

          total   stress  (Ry/bohr**3)                   (kbar)     P=-3847.44
  -0.02664610   0.00027114   0.00000000      -3919.78     39.89      0.00
   0.00027114  -0.02503017   0.00000000         39.89  -3682.07      0.00
   0.00000000   0.00000000  -0.02678685          0.00      0.00  -3940.48


     number of scf cycles    =   5
     number of bfgs steps    =   4

     energy   old            =   -2052.2068141556 Ry
     energy   new            =   -2052.2126253212 Ry

     CASE: energy  _new < energy  _old

     new trust radius        =       0.0878335044 bohr
     new conv_thr            =       0.0000000211 Ry


ATOMIC_POSITIONS (crystal)
La       0.825965823   0.174034177   0.250000000
La       0.174034177   0.825965823   0.750000000
Te       0.078242961   0.921757039   0.250000000
Te       0.921757039   0.078242961   0.750000000
Te       0.426913689   0.573086311   0.250000000
Te       0.573086311   0.426913689   0.750000000
Te       0.700449125   0.299550875   0.250000000
Te       0.299550875   0.700449125   0.750000000


     NEW-OLD atomic charge density approx. for the potential

     total cpu time spent up to now is     1664.8 secs

     Self-consistent Calculation

     iteration #  1     ecut=    60.00 Ry     beta= 0.50
     Davidson diagonalization with overlap
     ethr =  1.00E-06,  avg # of iterations = 12.5

     total cpu time spent up to now is     1702.5 secs

     total energy              =   -2052.18642155 Ry
     Harris-Foulkes estimate   =   -2052.18210850 Ry
     estimated scf accuracy    <       0.01650385 Ry

     iteration #  2     ecut=    60.00 Ry     beta= 0.50
     Davidson diagonalization with overlap
     ethr =  1.20E-05,  avg # of iterations =  2.0

     total cpu time spent up to now is     1723.1 secs

     total energy              =   -2052.18891702 Ry
     Harris-Foulkes estimate   =   -2052.18703536 Ry
     estimated scf accuracy    <       0.00327213 Ry

     iteration #  3     ecut=    60.00 Ry     beta= 0.50
     Davidson diagonalization with overlap
     ethr =  2.37E-06,  avg # of iterations =  4.5

     total cpu time spent up to now is     1744.7 secs

     total energy              =   -2052.18922183 Ry
     Harris-Foulkes estimate   =   -2052.18920879 Ry
     estimated scf accuracy    <       0.00075591 Ry

     iteration #  4     ecut=    60.00 Ry     beta= 0.50
     Davidson diagonalization with overlap
     ethr =  5.48E-07,  avg # of iterations =  7.0

     total cpu time spent up to now is     1767.1 secs

     total energy              =   -2052.18923012 Ry
     Harris-Foulkes estimate   =   -2052.18979507 Ry
     estimated scf accuracy    <       0.00392821 Ry

     iteration #  5     ecut=    60.00 Ry     beta= 0.50
     Davidson diagonalization with overlap
     ethr =  5.48E-07,  avg # of iterations =  6.0

     total cpu time spent up to now is     1788.8 secs

     total energy              =   -2052.18954923 Ry
     Harris-Foulkes estimate   =   -2052.18955807 Ry
     estimated scf accuracy    <       0.00004866 Ry

     iteration #  6     ecut=    60.00 Ry     beta= 0.50
     Davidson diagonalization with overlap
     ethr =  3.53E-08,  avg # of iterations =  6.0

     total cpu time spent up to now is     1812.0 secs

     total energy              =   -2052.18957177 Ry
     Harris-Foulkes estimate   =   -2052.18957155 Ry
     estimated scf accuracy    <       0.00001755 Ry

     iteration #  7     ecut=    60.00 Ry     beta= 0.50
     Davidson diagonalization with overlap
     ethr =  1.27E-08,  avg # of iterations =  5.0

     total cpu time spent up to now is     1833.8 secs

     total energy              =   -2052.18957467 Ry
     Harris-Foulkes estimate   =   -2052.18957415 Ry
     estimated scf accuracy    <       0.00000105 Ry

     iteration #  8     ecut=    60.00 Ry     beta= 0.50
     Davidson diagonalization with overlap
     ethr =  7.59E-10,  avg # of iterations =  4.5

     total cpu time spent up to now is     1859.1 secs

     total energy              =   -2052.18957590 Ry
     Harris-Foulkes estimate   =   -2052.18957551 Ry
     estimated scf accuracy    <       0.00000042 Ry

     iteration #  9     ecut=    60.00 Ry     beta= 0.50
     Davidson diagonalization with overlap
     ethr =  3.05E-10,  avg # of iterations =  3.0

     total cpu time spent up to now is     1880.5 secs

     total energy              =   -2052.18957598 Ry
     Harris-Foulkes estimate   =   -2052.18957594 Ry
     estimated scf accuracy    <       0.00000006 Ry

     iteration # 10     ecut=    60.00 Ry     beta= 0.50
     Davidson diagonalization with overlap
     ethr =  4.33E-11,  avg # of iterations =  4.0

     total cpu time spent up to now is     1903.5 secs

     total energy              =   -2052.18957604 Ry
     Harris-Foulkes estimate   =   -2052.18957603 Ry
     estimated scf accuracy    <       0.00000004 Ry

     iteration # 11     ecut=    60.00 Ry     beta= 0.50
     Davidson diagonalization with overlap
     ethr =  2.57E-11,  avg # of iterations =  3.0

     total cpu time spent up to now is     1924.5 secs

     End of self-consistent calculation

          k = 0.0000 0.0000 0.0000 ( 14201 PWs)   bands (ev):

   -78.9482 -78.8534 -78.7550 -78.6469 -78.6340 -78.5452 -78.4991 -78.4102
   -78.3488 -78.2692 -27.0945 -27.0940 -27.0825 -27.0822 -27.0227 -27.0226
   -26.9679 -26.9676 -26.9572 -26.9568 -26.9269 -26.9269 -26.9021 -26.9020
   -26.8711 -26.8708 -26.7805 -26.7803 -26.7534 -26.7528 -25.8378 -25.8361
   -25.8163 -25.8141 -25.8040 -25.8020 -25.7692 -25.7678 -25.7537 -25.7531
   -22.2839 -22.2797  -6.3771  -6.2871  -6.0904  -6.0773  -5.9703  -5.9567
    -2.8580  -2.7121  -0.6237  -0.2074   1.2013   1.2072   5.9507   6.0134
     6.0506   6.1281   6.1660   6.7347   7.3391   8.4526   8.5872   9.1348
     9.1886   9.3754   9.5533   9.6505  11.2647

          k = 0.0000 0.0000 1.0363 ( 14158 PWs)   bands (ev):

   -78.6292 -78.6086 -78.6046 -78.5480 -78.5431 -78.4901 -78.4747 -78.4097
   -78.3573 -78.3550 -27.0762 -27.0762 -27.0715 -27.0713 -27.0270 -27.0269
   -26.9916 -26.9916 -26.9565 -26.9565 -26.9264 -26.9263 -26.9001 -26.8999
   -26.8717 -26.8712 -26.7808 -26.7807 -26.7550 -26.7545 -25.8363 -25.8355
   -25.8159 -25.8150 -25.8036 -25.8024 -25.7692 -25.7685 -25.7529 -25.7524
   -22.2751 -22.2730  -6.3543  -6.3465  -6.2788  -6.2446  -5.9335  -5.9268
    -2.1504  -2.0325  -0.2918  -0.2319  -0.1173   0.1274   6.4621   6.4685
     6.9143   6.9491   7.0339   7.2504   7.4452   7.7358   7.9029   8.2051
     8.4008   8.5363   9.0547   9.3011   9.5823

     highest occupied level (ev):    11.2647

* XDM dispersion
  a1 =     1.215300
  a2 (ang) =     2.370400
  a2 (bohr) =     4.479407
 
+ van der Waals energies, forces and stresses (Ry,bohr)
  Evdw(total,Ry)   =  -3.093770272829E-02
  Evdw(C6,Ry)      =  -2.320393800201E-02
  Evdw(C8,Ry)      =  -5.916285223509E-03
  Evdw(C10,Ry)     =  -1.817479502780E-03
  Fvdw (001,Ry/bohr) =  -1.622642772567E-05   2.650066123539E-06  -8.836629919199E-21
  Fvdw (002,Ry/bohr) =   1.622642772567E-05  -2.650066123539E-06   3.276602685843E-20
  Fvdw (003,Ry/bohr) =  -5.328615925855E-06   8.702583704270E-07  -1.885616760672E-20
  Fvdw (004,Ry/bohr) =   5.328615925852E-06  -8.702583704264E-07   1.348930016629E-20
  Fvdw (005,Ry/bohr) =   2.696460964960E-06  -4.403803460356E-07  -1.742349759513E-20
  Fvdw (006,Ry/bohr) =  -2.696460964962E-06   4.403803460363E-07   3.586199911698E-20
  Fvdw (007,Ry/bohr) =   1.469096313718E-05  -2.399297269257E-06  -2.880685198114E-21
  Fvdw (008,Ry/bohr) =  -1.469096313717E-05   2.399297269256E-06   8.088354872996E-21
  sigma_vdw (Ry/bohr**3) =  -1.710855201684E-05  -5.171731140626E-08  -9.163670532381E-23  
                            -5.171731140626E-08  -1.741677217354E-05   7.512708498332E-23  
                            -9.163670532381E-23   7.512708498332E-23  -1.742377027221E-05  
  sigma_vdw (GPa) =  -2.516754468617E-01  -7.607877888114E-04  -1.348022248675E-18  
                     -7.607877888114E-04  -2.562095211418E-01   1.105157389473E-18  
                     -1.348022248675E-18   1.105157389473E-18  -2.563124667100E-01  
 

!    total energy              =   -2052.22051374 Ry
     Harris-Foulkes estimate   =   -2052.22051374 Ry
     estimated scf accuracy    <       0.00000002 Ry

     The total energy is the sum of the following terms:

     one-electron contribution =   -1205.79520685 Ry
     hartree contribution      =     627.84123425 Ry
     xc contribution           =    -400.83016018 Ry
     ewald contribution        =   -1073.40544325 Ry
     Dispersion XDM Correction =      -0.03093770 Ry

     convergence has been achieved in  11 iterations

     Forces acting on atoms (cartesian axes, Ry/au):

     atom    1 type  1   force =    -0.00793304    0.00129561    0.00000000
     atom    2 type  1   force =     0.00793304   -0.00129561    0.00000000
     atom    3 type  2   force =     0.02138302   -0.00349223    0.00000000
     atom    4 type  2   force =    -0.02138302    0.00349223    0.00000000
     atom    5 type  2   force =     0.01252135   -0.00204496    0.00000000
     atom    6 type  2   force =    -0.01252135    0.00204496    0.00000000
     atom    7 type  2   force =    -0.00700055    0.00114332    0.00000000
     atom    8 type  2   force =     0.00700055   -0.00114332    0.00000000

     Total force =     0.038609     Total SCF correction =     0.000110


     Computing stress (Cartesian axis) and pressure

          total   stress  (Ry/bohr**3)                   (kbar)     P=-3846.91
  -0.02663409   0.00027055   0.00000000      -3918.01     39.80      0.00
   0.00027055  -0.02502167   0.00000000         39.80  -3680.81      0.00
   0.00000000   0.00000000  -0.02679647          0.00      0.00  -3941.90


     number of scf cycles    =   6
     number of bfgs steps    =   5

     energy   old            =   -2052.2126253212 Ry
     energy   new            =   -2052.2205137384 Ry

     CASE: energy  _new < energy  _old

     new trust radius        =       0.1317502565 bohr
     new conv_thr            =       0.0000000214 Ry


ATOMIC_POSITIONS (crystal)
La       0.823817219   0.176182781   0.250000000
La       0.176182781   0.823817219   0.750000000
Te       0.080807739   0.919192261   0.250000000
Te       0.919192261   0.080807739   0.750000000
Te       0.428237713   0.571762287   0.250000000
Te       0.571762287   0.428237713   0.750000000
Te       0.698000908   0.301999092   0.250000000
Te       0.301999092   0.698000908   0.750000000


     NEW-OLD atomic charge density approx. for the potential

     total cpu time spent up to now is     1959.1 secs

     Self-consistent Calculation

     iteration #  1     ecut=    60.00 Ry     beta= 0.50
     Davidson diagonalization with overlap
     ethr =  1.00E-06,  avg # of iterations = 12.5

     total cpu time spent up to now is     1999.0 secs

     total energy              =   -2052.19172478 Ry
     Harris-Foulkes estimate   =   -2052.18220956 Ry
     estimated scf accuracy    <       0.03586456 Ry

     iteration #  2     ecut=    60.00 Ry     beta= 0.50
     Davidson diagonalization with overlap
     ethr =  2.60E-05,  avg # of iterations =  2.0

     total cpu time spent up to now is     2019.5 secs

     total energy              =   -2052.19709082 Ry
     Harris-Foulkes estimate   =   -2052.19306680 Ry
     estimated scf accuracy    <       0.00731009 Ry

     iteration #  3     ecut=    60.00 Ry     beta= 0.50
     Davidson diagonalization with overlap
     ethr =  5.30E-06,  avg # of iterations =  4.5

     total cpu time spent up to now is     2041.5 secs

     total energy              =   -2052.19668609 Ry
     Harris-Foulkes estimate   =   -2052.19856498 Ry
     estimated scf accuracy    <       0.00970051 Ry

     iteration #  4     ecut=    60.00 Ry     beta= 0.50
     Davidson diagonalization with overlap
     ethr =  5.30E-06,  avg # of iterations =  5.5

     total cpu time spent up to now is     2063.0 secs

     total energy              =   -2052.19819022 Ry
     Harris-Foulkes estimate   =   -2052.19872413 Ry
     estimated scf accuracy    <       0.00392138 Ry

     iteration #  5     ecut=    60.00 Ry     beta= 0.50
     Davidson diagonalization with overlap
     ethr =  2.84E-06,  avg # of iterations =  4.5

     total cpu time spent up to now is     2084.0 secs

     total energy              =   -2052.19851132 Ry
     Harris-Foulkes estimate   =   -2052.19851509 Ry
     estimated scf accuracy    <       0.00008732 Ry

     iteration #  6     ecut=    60.00 Ry     beta= 0.50
     Davidson diagonalization with overlap
     ethr =  6.33E-08,  avg # of iterations =  6.5

     total cpu time spent up to now is     2107.1 secs

     total energy              =   -2052.19856646 Ry
     Harris-Foulkes estimate   =   -2052.19856409 Ry
     estimated scf accuracy    <       0.00007706 Ry

     iteration #  7     ecut=    60.00 Ry     beta= 0.50
     Davidson diagonalization with overlap
     ethr =  5.58E-08,  avg # of iterations =  3.5

     total cpu time spent up to now is     2128.1 secs

     total energy              =   -2052.19857052 Ry
     Harris-Foulkes estimate   =   -2052.19857146 Ry
     estimated scf accuracy    <       0.00001623 Ry

     iteration #  8     ecut=    60.00 Ry     beta= 0.50
     Davidson diagonalization with overlap
     ethr =  1.18E-08,  avg # of iterations =  5.5

     total cpu time spent up to now is     2150.1 secs

     total energy              =   -2052.19857512 Ry
     Harris-Foulkes estimate   =   -2052.19857453 Ry
     estimated scf accuracy    <       0.00000358 Ry

     iteration #  9     ecut=    60.00 Ry     beta= 0.50
     Davidson diagonalization with overlap
     ethr =  2.60E-09,  avg # of iterations =  5.5

     total cpu time spent up to now is     2171.5 secs

     total energy              =   -2052.19857574 Ry
     Harris-Foulkes estimate   =   -2052.19857560 Ry
     estimated scf accuracy    <       0.00000008 Ry

     iteration # 10     ecut=    60.00 Ry     beta= 0.50
     Davidson diagonalization with overlap
     ethr =  5.60E-11,  avg # of iterations =  7.0

     total cpu time spent up to now is     2199.6 secs

     total energy              =   -2052.19857602 Ry
     Harris-Foulkes estimate   =   -2052.19857590 Ry
     estimated scf accuracy    <       0.00000006 Ry

     iteration # 11     ecut=    60.00 Ry     beta= 0.50
     Davidson diagonalization with overlap
     ethr =  4.03E-11,  avg # of iterations =  4.5

     total cpu time spent up to now is     2220.8 secs

     End of self-consistent calculation

          k = 0.0000 0.0000 0.0000 ( 14201 PWs)   bands (ev):

   -78.8527 -78.7355 -78.6995 -78.6648 -78.6134 -78.5563 -78.5521 -78.5199
   -78.5127 -78.4108 -27.0398 -27.0393 -27.0267 -27.0265 -26.9757 -26.9756
   -26.9209 -26.9206 -26.9168 -26.9161 -26.8941 -26.8937 -26.8718 -26.8712
   -26.8393 -26.8389 -26.7506 -26.7506 -26.7280 -26.7274 -25.8494 -25.8478
   -25.8280 -25.8266 -25.8186 -25.8174 -25.7922 -25.7916 -25.7743 -25.7741
   -22.3164 -22.3113  -6.3926  -6.2992  -6.1380  -6.1226  -6.0133  -5.9973
    -2.8089  -2.6664  -0.6476  -0.3135   1.2133   1.2293   6.0041   6.0987
     6.1414   6.2101   6.2550   6.7366   7.4018   8.4919   8.6365   9.1057
     9.1504   9.2650   9.4589   9.6757  11.1913

          k = 0.0000 0.0000 1.0363 ( 14158 PWs)   bands (ev):

   -78.6261 -78.6146 -78.6116 -78.6015 -78.5774 -78.5159 -78.4593 -78.4470
   -78.3944 -78.3819 -27.0198 -27.0196 -27.0165 -27.0163 -26.9808 -26.9807
   -26.9455 -26.9454 -26.9161 -26.9160 -26.8929 -26.8928 -26.8702 -26.8699
   -26.8393 -26.8389 -26.7509 -26.7507 -26.7292 -26.7289 -25.8479 -25.8471
   -25.8279 -25.8273 -25.8183 -25.8176 -25.7926 -25.7921 -25.7736 -25.7733
   -22.3074 -22.3049  -6.4038  -6.4037  -6.3041  -6.2614  -5.9723  -5.9643
    -2.0990  -1.9846  -0.2508  -0.1851  -0.1155   0.0936   6.4290   6.4308
     6.9125   6.9806   7.0930   7.2561   7.4047   7.6596   7.8296   8.0688
     8.4709   8.5014   9.0091   9.3530   9.6682

     highest occupied level (ev):    11.1913

* XDM dispersion
  a1 =     1.215300
  a2 (ang) =     2.370400
  a2 (bohr) =     4.479407
 
+ van der Waals energies, forces and stresses (Ry,bohr)
  Evdw(total,Ry)   =  -3.093649648196E-02
  Evdw(C6,Ry)      =  -2.320333777132E-02
  Evdw(C8,Ry)      =  -5.915813882108E-03
  Evdw(C10,Ry)     =  -1.817344828541E-03
  Fvdw (001,Ry/bohr) =  -1.778394427598E-05   2.904436457957E-06  -1.872559284545E-20
  Fvdw (002,Ry/bohr) =   1.778394427599E-05  -2.904436457957E-06   2.650684444561E-20
  Fvdw (003,Ry/bohr) =  -6.271484261253E-06   1.024245648266E-06  -6.016344790302E-21
  Fvdw (004,Ry/bohr) =   6.271484261250E-06  -1.024245648265E-06   1.731494592583E-20
  Fvdw (005,Ry/bohr) =   3.274974247277E-06  -5.348619212414E-07  -1.816578363685E-20
  Fvdw (006,Ry/bohr) =  -3.274974247280E-06   5.348619212418E-07   1.832154941538E-20
  Fvdw (007,Ry/bohr) =   1.566488026799E-05  -2.558355371204E-06  -3.404013079793E-20
  Fvdw (008,Ry/bohr) =  -1.566488026799E-05   2.558355371203E-06   1.680404340066E-20
  sigma_vdw (Ry/bohr**3) =  -1.707856443558E-05  -5.627950764379E-08  -1.604976840968E-23  
                            -5.627950764379E-08  -1.741397395695E-05   6.023548277569E-23  
                            -1.604976840968E-23   6.023548277569E-23  -1.741318724964E-05  
  sigma_vdw (GPa) =  -2.512343143856E-01  -8.279000012080E-04  -2.361002048893E-19  
                     -8.279000012080E-04  -2.561683579615E-01   8.860943947555E-19  
                     -2.361002048893E-19   8.860943947555E-19  -2.561567850994E-01  
 

!    total energy              =   -2052.22951254 Ry
     Harris-Foulkes estimate   =   -2052.22951252 Ry
     estimated scf accuracy    <       0.00000001 Ry

     The total energy is the sum of the following terms:

     one-electron contribution =   -1215.47923837 Ry
     hartree contribution      =     632.70613855 Ry
     xc contribution           =    -400.84627391 Ry
     ewald contribution        =   -1068.57920232 Ry
     Dispersion XDM Correction =      -0.03093650 Ry

     convergence has been achieved in  11 iterations

     Forces acting on atoms (cartesian axes, Ry/au):

     atom    1 type  1   force =    -0.00591329    0.00096575    0.00000000
     atom    2 type  1   force =     0.00591329   -0.00096575    0.00000000
     atom    3 type  2   force =     0.01646551   -0.00268911    0.00000000
     atom    4 type  2   force =    -0.01646551    0.00268911    0.00000000
     atom    5 type  2   force =     0.01054995   -0.00172300    0.00000000
     atom    6 type  2   force =    -0.01054995    0.00172300    0.00000000
     atom    7 type  2   force =     0.00271043   -0.00044266    0.00000000
     atom    8 type  2   force =    -0.00271043    0.00044266    0.00000000

     Total force =     0.029532     Total SCF correction =     0.000138


     Computing stress (Cartesian axis) and pressure

          total   stress  (Ry/bohr**3)                   (kbar)     P=-3845.83
  -0.02661063   0.00026900   0.00000000      -3914.56     39.57      0.00
   0.00026900  -0.02500745   0.00000000         39.57  -3678.72      0.00
   0.00000000   0.00000000  -0.02681211          0.00      0.00  -3944.20


     number of scf cycles    =   7
     number of bfgs steps    =   6

     energy   old            =   -2052.2205137384 Ry
     energy   new            =   -2052.2295125419 Ry

     CASE: energy  _new < energy  _old

     new trust radius        =       0.1976253848 bohr
     new conv_thr            =       0.0000000165 Ry


ATOMIC_POSITIONS (crystal)
La       0.820607371   0.179392629   0.250000000
La       0.179392629   0.820607371   0.750000000
Te       0.084654905   0.915345095   0.250000000
Te       0.915345095   0.084654905   0.750000000
Te       0.430267450   0.569732550   0.250000000
Te       0.569732550   0.430267450   0.750000000
Te       0.694714259   0.305285741   0.250000000
Te       0.305285741   0.694714259   0.750000000


     NEW-OLD atomic charge density approx. for the potential

     total cpu time spent up to now is     2255.3 secs

     Self-consistent Calculation

     iteration #  1     ecut=    60.00 Ry     beta= 0.50
     Davidson diagonalization with overlap
     ethr =  1.00E-06,  avg # of iterations = 12.5

     total cpu time spent up to now is     2296.6 secs

     total energy              =   -2052.18487745 Ry
     Harris-Foulkes estimate   =   -2052.16442964 Ry
     estimated scf accuracy    <       0.07647006 Ry

     iteration #  2     ecut=    60.00 Ry     beta= 0.50
     Davidson diagonalization with overlap
     ethr =  5.54E-05,  avg # of iterations =  2.0

     total cpu time spent up to now is     2317.3 secs

     total energy              =   -2052.19344560 Ry
     Harris-Foulkes estimate   =   -2052.18857708 Ry
     estimated scf accuracy    <       0.02015645 Ry

     iteration #  3     ecut=    60.00 Ry     beta= 0.50
     Davidson diagonalization with overlap
     ethr =  1.46E-05,  avg # of iterations =  7.0

     total cpu time spent up to now is     2340.0 secs

     total energy              =   -2052.18308789 Ry
     Harris-Foulkes estimate   =   -2052.21019154 Ry
     estimated scf accuracy    <       0.14294609 Ry

     iteration #  4     ecut=    60.00 Ry     beta= 0.50
     Davidson diagonalization with overlap
     ethr =  1.46E-05,  avg # of iterations =  7.0

     total cpu time spent up to now is     2362.6 secs

     total energy              =   -2052.19923156 Ry
     Harris-Foulkes estimate   =   -2052.19987446 Ry
     estimated scf accuracy    <       0.00534302 Ry

     iteration #  5     ecut=    60.00 Ry     beta= 0.50
     Davidson diagonalization with overlap
     ethr =  3.87E-06,  avg # of iterations =  4.5

     total cpu time spent up to now is     2383.6 secs

     total energy              =   -2052.19970839 Ry
     Harris-Foulkes estimate   =   -2052.19974860 Ry
     estimated scf accuracy    <       0.00045484 Ry

     iteration #  6     ecut=    60.00 Ry     beta= 0.50
     Davidson diagonalization with overlap
     ethr =  3.30E-07,  avg # of iterations =  6.0

     total cpu time spent up to now is     2406.0 secs

     total energy              =   -2052.19984575 Ry
     Harris-Foulkes estimate   =   -2052.19983764 Ry
     estimated scf accuracy    <       0.00008680 Ry

     iteration #  7     ecut=    60.00 Ry     beta= 0.50
     Davidson diagonalization with overlap
     ethr =  6.29E-08,  avg # of iterations =  5.5

     total cpu time spent up to now is     2428.1 secs

     total energy              =   -2052.19986649 Ry
     Harris-Foulkes estimate   =   -2052.19986108 Ry
     estimated scf accuracy    <       0.00000500 Ry

     iteration #  8     ecut=    60.00 Ry     beta= 0.50
     Davidson diagonalization with overlap
     ethr =  3.62E-09,  avg # of iterations =  5.0

     total cpu time spent up to now is     2452.5 secs

     total energy              =   -2052.19987099 Ry
     Harris-Foulkes estimate   =   -2052.19986879 Ry
     estimated scf accuracy    <       0.00000069 Ry

     iteration #  9     ecut=    60.00 Ry     beta= 0.50
     Davidson diagonalization with overlap
     ethr =  5.01E-10,  avg # of iterations =  5.0

     total cpu time spent up to now is     2475.2 secs

     total energy              =   -2052.19987183 Ry
     Harris-Foulkes estimate   =   -2052.19987118 Ry
     estimated scf accuracy    <       0.00000007 Ry

     iteration # 10     ecut=    60.00 Ry     beta= 0.50
     Davidson diagonalization with overlap
     ethr =  4.83E-11,  avg # of iterations =  5.5

     total cpu time spent up to now is     2499.8 secs

     total energy              =   -2052.19987203 Ry
     Harris-Foulkes estimate   =   -2052.19987186 Ry
     estimated scf accuracy    <       0.00000004 Ry

     iteration # 11     ecut=    60.00 Ry     beta= 0.50
     Davidson diagonalization with overlap
     ethr =  2.57E-11,  avg # of iterations =  5.0

     total cpu time spent up to now is     2521.5 secs

     End of self-consistent calculation

          k = 0.0000 0.0000 0.0000 ( 14201 PWs)   bands (ev):

   -78.9835 -78.8918 -78.8386 -78.7856 -78.7558 -78.7393 -78.4785 -78.3915
   -78.3603 -78.3306 -26.9442 -26.9441 -26.9317 -26.9316 -26.8931 -26.8930
   -26.8409 -26.8408 -26.8390 -26.8390 -26.8277 -26.8275 -26.8087 -26.8083
   -26.7775 -26.7771 -26.6883 -26.6883 -26.6714 -26.6712 -25.8896 -25.8880
   -25.8662 -25.8658 -25.8636 -25.8629 -25.8455 -25.8454 -25.8243 -25.8241
   -22.3823 -22.3756  -6.4375  -6.3379  -6.2281  -6.2080  -6.0941  -6.0733
[...]
     Davidson diagonalization with overlap
     ethr =  2.88E-08,  avg # of iterations =  5.0

     total cpu time spent up to now is     6988.7 secs

     total energy              =   -2052.20515462 Ry
     Harris-Foulkes estimate   =   -2052.20516235 Ry
     estimated scf accuracy    <       0.00001973 Ry

     iteration #  3     ecut=    60.00 Ry     beta= 0.50
     Davidson diagonalization with overlap
     ethr =  1.43E-08,  avg # of iterations =  4.5

     total cpu time spent up to now is     7010.9 secs

     total energy              =   -2052.20515915 Ry
     Harris-Foulkes estimate   =   -2052.20515962 Ry
     estimated scf accuracy    <       0.00000303 Ry

     iteration #  4     ecut=    60.00 Ry     beta= 0.50
     Davidson diagonalization with overlap
     ethr =  2.20E-09,  avg # of iterations =  7.5

     total cpu time spent up to now is     7034.2 secs

     total energy              =   -2052.20515875 Ry
     Harris-Foulkes estimate   =   -2052.20516151 Ry
     estimated scf accuracy    <       0.00001493 Ry

     iteration #  5     ecut=    60.00 Ry     beta= 0.50
     Davidson diagonalization with overlap
     ethr =  2.20E-09,  avg # of iterations =  7.0

     total cpu time spent up to now is     7056.4 secs

     total energy              =   -2052.20516020 Ry
     Harris-Foulkes estimate   =   -2052.20516022 Ry
     estimated scf accuracy    <       0.00000026 Ry

     iteration #  6     ecut=    60.00 Ry     beta= 0.50
     Davidson diagonalization with overlap
     ethr =  1.86E-10,  avg # of iterations =  4.5

     total cpu time spent up to now is     7079.4 secs

     total energy              =   -2052.20516028 Ry
     Harris-Foulkes estimate   =   -2052.20516029 Ry
     estimated scf accuracy    <       0.00000006 Ry

     iteration #  7     ecut=    60.00 Ry     beta= 0.50
     Davidson diagonalization with overlap
     ethr =  4.00E-11,  avg # of iterations =  4.0

     total cpu time spent up to now is     7101.5 secs

     total energy              =   -2052.20516029 Ry
     Harris-Foulkes estimate   =   -2052.20516030 Ry
     estimated scf accuracy    <          7.0E-09 Ry

     iteration #  8     ecut=    60.00 Ry     beta= 0.50
     Davidson diagonalization with overlap
     ethr =  5.07E-12,  avg # of iterations =  5.0

     total cpu time spent up to now is     7126.5 secs

     total energy              =   -2052.20516030 Ry
     Harris-Foulkes estimate   =   -2052.20516030 Ry
     estimated scf accuracy    <          1.5E-09 Ry

     iteration #  9     ecut=    60.00 Ry     beta= 0.50
     Davidson diagonalization with overlap
     ethr =  1.10E-12,  avg # of iterations =  3.5

     total cpu time spent up to now is     7148.1 secs

     End of self-consistent calculation

          k = 0.0000 0.0000 0.0000 ( 14201 PWs)   bands (ev):

   -78.9091 -78.8026 -78.7763 -78.7354 -78.7063 -78.6777 -78.4120 -78.3241
   -78.2925 -78.2453 -27.0018 -27.0017 -26.9910 -26.9907 -26.9432 -26.9431
   -26.8976 -26.8972 -26.8905 -26.8904 -26.8809 -26.8803 -26.8605 -26.8604
   -26.8193 -26.8189 -26.7314 -26.7313 -26.7129 -26.7123 -25.8930 -25.8905
   -25.8710 -25.8690 -25.8660 -25.8642 -25.8508 -25.8496 -25.8312 -25.8307
   -22.3182 -22.3095  -6.4294  -6.2991  -6.1722  -6.1475  -6.0342  -6.0084
    -2.7471  -2.6198  -0.7300  -0.4075   1.1691   1.1954   6.1353   6.1950
     6.2496   6.2792   6.3361   6.6758   7.4128   8.3593   8.5074   8.9979
     9.0414   9.1982   9.4181   9.6821  11.0884

          k = 0.0000 0.0000 1.0363 ( 14158 PWs)   bands (ev):

   -78.6154 -78.6122 -78.5955 -78.5216 -78.5188 -78.5007 -78.4997 -78.4002
   -78.3751 -78.3619 -26.9843 -26.9843 -26.9806 -26.9804 -26.9480 -26.9478
   -26.9148 -26.9147 -26.8975 -26.8975 -26.8785 -26.8783 -26.8599 -26.8598
   -26.8187 -26.8181 -26.7313 -26.7311 -26.7135 -26.7131 -25.8912 -25.8900
   -25.8707 -25.8698 -25.8657 -25.8645 -25.8510 -25.8503 -25.8304 -25.8299
   -22.3082 -22.3038  -6.4581  -6.4559  -6.3186  -6.2577  -5.9884  -5.9755
    -2.0349  -1.9448  -0.2334  -0.2116  -0.1406   0.0433   6.2748   6.4086
     6.8208   7.0351   7.1150   7.1962   7.3767   7.6290   7.7291   7.9837
     8.4192   8.5729   8.8729   9.3503   9.7458

     highest occupied level (ev):    11.0884

* XDM dispersion
  a1 =     1.215300
  a2 (ang) =     2.370400
  a2 (bohr) =     4.479407
 
+ van der Waals energies, forces and stresses (Ry,bohr)
  Evdw(total,Ry)   =  -3.094655427461E-02
  Evdw(C6,Ry)      =  -2.320807131964E-02
  Evdw(C8,Ry)      =  -5.919005063875E-03
  Evdw(C10,Ry)     =  -1.819477891090E-03
  Fvdw (001,Ry/bohr) =  -2.376605299879E-05   3.881421900551E-06  -2.806833685059E-20
  Fvdw (002,Ry/bohr) =   2.376605299879E-05  -3.881421900552E-06  -4.022987387919E-21
  Fvdw (003,Ry/bohr) =  -1.639331767090E-07   2.677322237619E-08  -1.487942887913E-20
  Fvdw (004,Ry/bohr) =   1.639331767090E-07  -2.677322237505E-08   1.023140660820E-20
  Fvdw (005,Ry/bohr) =  -2.421129785330E-06   3.954138355799E-07  -1.614537386055E-20
  Fvdw (006,Ry/bohr) =   2.421129785330E-06  -3.954138355804E-07   7.015641387459E-21
  Fvdw (007,Ry/bohr) =   2.302513143114E-05  -3.760416144998E-06  -3.441300566307E-21
  Fvdw (008,Ry/bohr) =  -2.302513143114E-05   3.760416144998E-06   1.621204627898E-20
  sigma_vdw (Ry/bohr**3) =  -1.693929639945E-05  -8.054150453595E-08  -2.900532746865E-23  
                            -8.054150453595E-08  -1.741930037633E-05  -1.065322498971E-22  
                            -2.900532746865E-23  -1.065322498971E-22  -1.741143141545E-05  
  sigma_vdw (GPa) =  -2.491856111878E-01  -1.184806237550E-03  -4.266830264103E-19  
                     -1.184806237550E-03  -2.562467122827E-01  -1.567143237583E-18  
                     -4.266830264103E-19  -1.567143237583E-18  -2.561309558910E-01  
 

!    total energy              =   -2052.23610685 Ry
     Harris-Foulkes estimate   =   -2052.23610685 Ry
     estimated scf accuracy    <          1.8E-10 Ry

     The total energy is the sum of the following terms:

     one-electron contribution =   -1272.36311968 Ry
     hartree contribution      =     661.15722620 Ry
     xc contribution           =    -400.90289528 Ry
     ewald contribution        =   -1040.09637154 Ry
     Dispersion XDM Correction =      -0.03094655 Ry

     convergence has been achieved in   9 iterations

     Forces acting on atoms (cartesian axes, Ry/au):

     atom    1 type  1   force =     0.00121749   -0.00019884    0.00000000
     atom    2 type  1   force =    -0.00121749    0.00019884    0.00000000
     atom    3 type  2   force =     0.00075065   -0.00012259    0.00000000
     atom    4 type  2   force =    -0.00075065    0.00012259    0.00000000
     atom    5 type  2   force =     0.00004696   -0.00000767    0.00000000
     atom    6 type  2   force =    -0.00004696    0.00000767    0.00000000
     atom    7 type  2   force =     0.00016967   -0.00002771    0.00000000
     atom    8 type  2   force =    -0.00016967    0.00002771    0.00000000

     Total force =     0.002065     Total SCF correction =     0.000051


     Computing stress (Cartesian axis) and pressure

          total   stress  (Ry/bohr**3)                   (kbar)     P=-3838.52
  -0.02651206   0.00025867   0.00000000      -3900.06     38.05      0.00
   0.00025867  -0.02497045   0.00000000         38.05  -3673.28      0.00
   0.00000000   0.00000000  -0.02679860          0.00      0.00  -3942.21


     number of scf cycles    =  26
     number of bfgs steps    =  25

     energy   old            =   -2052.2360585985 Ry
     energy   new            =   -2052.2361068538 Ry

     CASE: energy  _new < energy  _old

     new trust radius        =       0.0113823417 bohr
     new conv_thr            =       0.0000000010 Ry


ATOMIC_POSITIONS (crystal)
La       0.819888572   0.180111428   0.250000000
La       0.180111428   0.819888572   0.750000000
Te       0.087106124   0.912893876   0.250000000
Te       0.912893876   0.087106124   0.750000000
Te       0.427106848   0.572893152   0.250000000
Te       0.572893152   0.427106848   0.750000000
Te       0.699688004   0.300311996   0.250000000
Te       0.300311996   0.699688004   0.750000000


     NEW-OLD atomic charge density approx. for the potential

     total cpu time spent up to now is     7182.5 secs

     Self-consistent Calculation

     iteration #  1     ecut=    60.00 Ry     beta= 0.50
     Davidson diagonalization with overlap
     ethr =  1.00E-06,  avg # of iterations =  4.0

     total cpu time spent up to now is     7209.0 secs

     total energy              =   -2052.20513495 Ry
     Harris-Foulkes estimate   =   -2052.20511010 Ry
     estimated scf accuracy    <       0.00017565 Ry

     iteration #  2     ecut=    60.00 Ry     beta= 0.50
     Davidson diagonalization with overlap
     ethr =  1.27E-07,  avg # of iterations =  4.0

     total cpu time spent up to now is     7230.9 secs

     total energy              =   -2052.20516899 Ry
     Harris-Foulkes estimate   =   -2052.20516017 Ry
     estimated scf accuracy    <       0.00004115 Ry

     iteration #  3     ecut=    60.00 Ry     beta= 0.50
     Davidson diagonalization with overlap
     ethr =  2.98E-08,  avg # of iterations =  4.5

     total cpu time spent up to now is     7253.8 secs

     total energy              =   -2052.20517332 Ry
     Harris-Foulkes estimate   =   -2052.20518099 Ry
     estimated scf accuracy    <       0.00003160 Ry

     iteration #  4     ecut=    60.00 Ry     beta= 0.50
     Davidson diagonalization with overlap
     ethr =  2.29E-08,  avg # of iterations =  6.5

     total cpu time spent up to now is     7275.9 secs

     total energy              =   -2052.20517468 Ry
     Harris-Foulkes estimate   =   -2052.20518716 Ry
     estimated scf accuracy    <       0.00006398 Ry

     iteration #  5     ecut=    60.00 Ry     beta= 0.50
     Davidson diagonalization with overlap
     ethr =  2.29E-08,  avg # of iterations =  5.5

     total cpu time spent up to now is     7297.5 secs

     total energy              =   -2052.20518188 Ry
     Harris-Foulkes estimate   =   -2052.20518214 Ry
     estimated scf accuracy    <       0.00000211 Ry

     iteration #  6     ecut=    60.00 Ry     beta= 0.50
     Davidson diagonalization with overlap
     ethr =  1.53E-09,  avg # of iterations =  5.5

     total cpu time spent up to now is     7319.5 secs

     total energy              =   -2052.20518229 Ry
     Harris-Foulkes estimate   =   -2052.20518229 Ry
     estimated scf accuracy    <       0.00000008 Ry

     iteration #  7     ecut=    60.00 Ry     beta= 0.50
     Davidson diagonalization with overlap
     ethr =  5.75E-11,  avg # of iterations =  5.0

     total cpu time spent up to now is     7346.0 secs

     total energy              =   -2052.20518239 Ry
     Harris-Foulkes estimate   =   -2052.20518239 Ry
     estimated scf accuracy    <       0.00000002 Ry

     iteration #  8     ecut=    60.00 Ry     beta= 0.50
     Davidson diagonalization with overlap
     ethr =  1.25E-11,  avg # of iterations =  4.5

     total cpu time spent up to now is     7368.2 secs

     total energy              =   -2052.20518239 Ry
     Harris-Foulkes estimate   =   -2052.20518239 Ry
     estimated scf accuracy    <          1.5E-09 Ry

     iteration #  9     ecut=    60.00 Ry     beta= 0.50
     Davidson diagonalization with overlap
     ethr =  1.09E-12,  avg # of iterations =  5.0

     total cpu time spent up to now is     7393.5 secs

     total energy              =   -2052.20518240 Ry
     Harris-Foulkes estimate   =   -2052.20518240 Ry
     estimated scf accuracy    <          1.0E-09 Ry

     iteration # 10     ecut=    60.00 Ry     beta= 0.50
     Davidson diagonalization with overlap
     ethr =  7.54E-13,  avg # of iterations =  3.0

     total cpu time spent up to now is     7414.4 secs

     End of self-consistent calculation

          k = 0.0000 0.0000 0.0000 ( 14201 PWs)   bands (ev):

   -78.9073 -78.7988 -78.7712 -78.7286 -78.7005 -78.6677 -78.4054 -78.3173
   -78.2806 -78.2368 -27.0054 -27.0054 -26.9948 -26.9945 -26.9461 -26.9461
   -26.9018 -26.9015 -26.8936 -26.8935 -26.8858 -26.8853 -26.8653 -26.8652
   -26.8216 -26.8212 -26.7337 -26.7336 -26.7150 -26.7144 -25.8955 -25.8930
   -25.8734 -25.8714 -25.8685 -25.8667 -25.8528 -25.8516 -25.8333 -25.8328
   -22.3133 -22.3047  -6.4270  -6.2978  -6.1686  -6.1441  -6.0297  -6.0043
    -2.7498  -2.6236  -0.7298  -0.4065   1.1636   1.1894   6.1342   6.1886
     6.2437   6.2709   6.3284   6.6715   7.4148   8.3578   8.5062   8.9870
     9.0296   9.1982   9.4189   9.6864  11.0986

          k = 0.0000 0.0000 1.0363 ( 14158 PWs)   bands (ev):

   -78.6071 -78.6036 -78.5916 -78.5145 -78.5088 -78.4962 -78.4918 -78.3958
   -78.3699 -78.3543 -26.9883 -26.9883 -26.9844 -26.9842 -26.9508 -26.9506
   -26.9179 -26.9178 -26.9018 -26.9017 -26.8833 -26.8831 -26.8646 -26.8645
   -26.8210 -26.8205 -26.7336 -26.7334 -26.7157 -26.7152 -25.8937 -25.8925
   -25.8731 -25.8722 -25.8682 -25.8671 -25.8530 -25.8523 -25.8325 -25.8320
   -22.3033 -22.2990  -6.4554  -6.4525  -6.3166  -6.2554  -5.9841  -5.9713
    -2.0376  -1.9491  -0.2374  -0.2142  -0.1448   0.0422   6.2713   6.4084
     6.8179   7.0282   7.1068   7.1930   7.3751   7.6259   7.7295   7.9857
     8.4193   8.5761   8.8655   9.3458   9.7416

     highest occupied level (ev):    11.0986

* XDM dispersion
  a1 =     1.215300
  a2 (ang) =     2.370400
  a2 (bohr) =     4.479407
 
+ van der Waals energies, forces and stresses (Ry,bohr)
  Evdw(total,Ry)   =  -3.094631217673E-02
  Evdw(C6,Ry)      =  -2.320791777467E-02
  Evdw(C8,Ry)      =  -5.918940994227E-03
  Evdw(C10,Ry)     =  -1.819453407833E-03
  Fvdw (001,Ry/bohr) =  -2.393400225778E-05   3.908851021064E-06  -5.753254262087E-20
  Fvdw (002,Ry/bohr) =   2.393400225778E-05  -3.908851021064E-06  -2.209298334846E-20
  Fvdw (003,Ry/bohr) =  -5.146686072476E-08   8.405459666867E-09   1.617852444423E-20
  Fvdw (004,Ry/bohr) =   5.146686072430E-08  -8.405459665307E-09   5.174791841415E-21
  Fvdw (005,Ry/bohr) =  -2.482968402302E-06   4.055131887257E-07  -1.689951663544E-20
  Fvdw (006,Ry/bohr) =   2.482968402301E-06  -4.055131887263E-07  -3.113618275564E-21
  Fvdw (007,Ry/bohr) =   2.338646156878E-05  -3.819427824794E-06  -2.126521148532E-20
  Fvdw (008,Ry/bohr) =  -2.338646156878E-05   3.819427824794E-06   1.414116725583E-20
  sigma_vdw (Ry/bohr**3) =  -1.694096186670E-05  -8.030685150242E-08  -2.642076229964E-23  
                            -8.030685150242E-08  -1.741956737965E-05  -4.950930675487E-23  
                            -2.642076229964E-23  -4.950930675487E-23  -1.741159753349E-05  
  sigma_vdw (GPa) =  -2.492101110527E-01  -1.181354372833E-03  -3.886627665301E-19  
                     -1.181354372833E-03  -2.562506400364E-01  -7.283069244598E-19  
                     -3.886627665301E-19  -7.283069244598E-19  -2.561333995713E-01  
 

!    total energy              =   -2052.23612871 Ry
     Harris-Foulkes estimate   =   -2052.23612871 Ry
     estimated scf accuracy    <          2.9E-10 Ry

     The total energy is the sum of the following terms:

     one-electron contribution =   -1274.86199386 Ry
     hartree contribution      =     662.40480681 Ry
     xc contribution           =    -400.90632015 Ry
     ewald contribution        =   -1038.84167519 Ry
     Dispersion XDM Correction =      -0.03094631 Ry

     convergence has been achieved in  10 iterations

     Forces acting on atoms (cartesian axes, Ry/au):

     atom    1 type  1   force =     0.00051187   -0.00008360    0.00000000
     atom    2 type  1   force =    -0.00051187    0.00008360    0.00000000
     atom    3 type  2   force =     0.00024536   -0.00004007    0.00000000
     atom    4 type  2   force =    -0.00024536    0.00004007    0.00000000
     atom    5 type  2   force =     0.00018904   -0.00003087    0.00000000
     atom    6 type  2   force =    -0.00018904    0.00003087    0.00000000
     atom    7 type  2   force =     0.00023703   -0.00003871    0.00000000
     atom    8 type  2   force =    -0.00023703    0.00003871    0.00000000

     Total force =     0.000922     Total SCF correction =     0.000016


     Computing stress (Cartesian axis) and pressure

          total   stress  (Ry/bohr**3)                   (kbar)     P=-3838.28
  -0.02651132   0.00025892   0.00000000      -3899.95     38.09      0.00
   0.00025892  -0.02496826   0.00000000         38.09  -3672.96      0.00
   0.00000000   0.00000000  -0.02679664          0.00      0.00  -3941.92


     bfgs converged in  27 scf cycles and  26 bfgs steps
     (criteria: energy <  1.0E-04 Ry, force <  1.0E-03 Ry/Bohr)

     End of BFGS Geometry Optimization

     Final energy   =   -2052.2361287085 Ry
Begin final coordinates

ATOMIC_POSITIONS (crystal)
La       0.819888572   0.180111428   0.250000000
La       0.180111428   0.819888572   0.750000000
Te       0.087106124   0.912893876   0.250000000
Te       0.912893876   0.087106124   0.750000000
Te       0.427106848   0.572893152   0.250000000
Te       0.572893152   0.427106848   0.750000000
Te       0.699688004   0.300311996   0.250000000
Te       0.300311996   0.699688004   0.750000000
End final coordinates


 
     init_run     :     11.28s CPU     14.60s WALL (       1 calls)
     electrons    :   5987.61s CPU   6503.79s WALL (      27 calls)
     update_pot   :     72.33s CPU     73.70s WALL (      26 calls)
     forces       :    144.83s CPU    171.82s WALL (      27 calls)
     stress       :    520.23s CPU    599.45s WALL (      27 calls)

     Called by init_run:
     wfcinit      :      4.18s CPU      5.94s WALL (       1 calls)
     potinit      :      1.49s CPU      1.70s WALL (       1 calls)
     hinit0       :      3.41s CPU      3.77s WALL (       1 calls)
     init_xdm     :      0.00s CPU      0.25s WALL (       1 calls)

     Called by electrons:
     c_bands      :   2494.92s CPU   2513.87s WALL (     269 calls)
     sum_band     :   2430.03s CPU   2677.62s WALL (     269 calls)
     v_of_rho     :    217.52s CPU    232.05s WALL (     286 calls)
     newd         :    573.65s CPU    832.98s WALL (     286 calls)
     mix_rho      :     39.85s CPU     41.14s WALL (     269 calls)
     energy_xdm   :    286.42s CPU    286.59s WALL (      27 calls)
     exdm:environ :      0.30s CPU      0.30s WALL (      28 calls)
     exdm:rho     :    107.23s CPU    107.26s WALL (       1 calls)

     Called by c_bands:
     init_us_2    :     11.83s CPU     11.85s WALL (    1186 calls)
     cegterg      :   2398.73s CPU   2417.42s WALL (     538 calls)

     Called by sum_band:
     sum_band:bec :      0.08s CPU      0.07s WALL (     538 calls)
     addusdens    :    710.55s CPU    957.34s WALL (     269 calls)

     Called by *egterg:
     h_psi        :   2103.23s CPU   2109.77s WALL (    3310 calls)
     s_psi        :     61.52s CPU     61.55s WALL (    3310 calls)
     g_psi        :      4.89s CPU      4.91s WALL (    2770 calls)
     cdiaghg      :     26.28s CPU     28.01s WALL (    3236 calls)

     Called by h_psi:
     h_psi:pot    :   2100.88s CPU   2101.77s WALL (    3310 calls)
     h_psi:calbec :     60.38s CPU     60.42s WALL (    3310 calls)
     vloc_psi     :   1979.12s CPU   1979.95s WALL (    3310 calls)
     add_vuspsi   :     61.37s CPU     61.38s WALL (    3310 calls)

     General routines
     calbec       :     88.12s CPU     88.19s WALL (    4118 calls)
     fft          :    129.75s CPU    129.93s WALL (    5118 calls)
     ffts         :      6.93s CPU      7.04s WALL (     824 calls)
     fftw         :   3016.70s CPU   3018.00s WALL (  366642 calls)
     interpolate  :     12.43s CPU     12.56s WALL (     286 calls)
 
     Parallel routines
 
     PWSCF        :      1h53m CPU      2h 4m WALL

 
   This run was terminated on:  23:58:35  18Apr2019            

=------------------------------------------------------------------------------=
   JOB DONE.
=------------------------------------------------------------------------------=
